<?xml version="1.0" encoding="ISO-8859-1"?>
<modeling>
 <generator>
  <i name="program" type="string">vasp </i>
  <i name="version" type="string">5.4.4.18Apr17-6-g9f103f2a35  </i>
  <i name="subversion" type="string">(build Feb 28 2020 16:27:09) complex            parallel </i>
  <i name="platform" type="string">LinuxIFC </i>
  <i name="date" type="string">2024 09 26 </i>
  <i name="time" type="string">20:20:58 </i>
 </generator>
 <incar>
  <i type="string" name="PREC">accurate</i>
  <i type="string" name="ALGO"> Normal</i>
  <i type="int" name="IBRION">     8</i>
  <i name="EDIFF">      0.00000001</i>
  <i name="ENCUT">    400.00000000</i>
  <i type="logical" name="LREAL"> F  </i>
  <i type="int" name="ISMEAR">     0</i>
  <i name="SIGMA">      0.01000000</i>
  <i type="logical" name="LWAVE"> F  </i>
  <i type="logical" name="LCHARG"> F  </i>
  <v type="int" name="KPOINT_BSE">    -1     0     0     0</v>
  <i type="logical" name="LEPSILON"> T  </i>
 </incar>
 <structure name="primitive_cell" >
  <crystal>
   <varray name="basis" >
    <v>       4.52075512       0.00000000       0.00000000 </v>
    <v>       0.00000000       4.52075512       0.00000000 </v>
    <v>       0.00000000       0.00000000       2.91180238 </v>
   </varray>
   <i name="volume">     59.50916559 </i>
   <varray name="rec_basis" >
    <v>       0.22120198      -0.00000000       0.00000000 </v>
    <v>       0.00000000       0.22120198       0.00000000 </v>
    <v>      -0.00000000      -0.00000000       0.34342990 </v>
   </varray>
  </crystal>
  <varray name="positions" >
   <v>      -0.30331222      -0.30331222      -0.50000000 </v>
   <v>      -0.50000000      -0.50000000       0.00000000 </v>
   <v>       0.00000000       0.00000000      -0.50000000 </v>
   <v>       0.30331222       0.30331222      -0.50000000 </v>
   <v>      -0.19668778       0.19668778       0.00000000 </v>
   <v>       0.19668778      -0.19668778       0.00000000 </v>
  </varray>
 </structure>
 <varray name="primitive_index" >
  <v type="int" >        1 </v>
  <v type="int" >        5 </v>
  <v type="int" >        6 </v>
  <v type="int" >        4 </v>
  <v type="int" >        3 </v>
  <v type="int" >        2 </v>
 </varray>
 <kpoints>
  <generation param="Gamma">
   <v type="int" name="divisions">       9        9       14 </v>
   <v name="usershift">      0.00000000       0.00000000       0.00000000 </v>
   <v name="genvec1">      0.11111111      -0.00000000       0.00000000 </v>
   <v name="genvec2">      0.00000000       0.11111111       0.00000000 </v>
   <v name="genvec3">      0.00000000       0.00000000       0.07142857 </v>
   <v name="shift">      0.00000000       0.00000000       0.00000000 </v>
  </generation>
  <varray name="kpointlist" >
   <v>       0.00000000       0.00000000       0.00000000 </v>
   <v>       0.11111111       0.00000000       0.00000000 </v>
   <v>       0.22222222       0.00000000       0.00000000 </v>
   <v>       0.33333333       0.00000000       0.00000000 </v>
   <v>       0.44444444       0.00000000       0.00000000 </v>
   <v>       0.11111111       0.11111111       0.00000000 </v>
   <v>       0.22222222       0.11111111       0.00000000 </v>
   <v>       0.33333333       0.11111111       0.00000000 </v>
   <v>       0.44444444       0.11111111       0.00000000 </v>
   <v>       0.22222222       0.22222222       0.00000000 </v>
   <v>       0.33333333       0.22222222       0.00000000 </v>
   <v>       0.44444444       0.22222222       0.00000000 </v>
   <v>       0.33333333       0.33333333       0.00000000 </v>
   <v>       0.44444444       0.33333333       0.00000000 </v>
   <v>       0.44444444       0.44444444       0.00000000 </v>
   <v>       0.00000000       0.00000000       0.07142857 </v>
   <v>       0.11111111       0.00000000       0.07142857 </v>
   <v>       0.22222222       0.00000000       0.07142857 </v>
   <v>       0.33333333       0.00000000       0.07142857 </v>
   <v>       0.44444444       0.00000000       0.07142857 </v>
   <v>       0.11111111       0.11111111       0.07142857 </v>
   <v>       0.22222222       0.11111111       0.07142857 </v>
   <v>       0.33333333       0.11111111       0.07142857 </v>
   <v>       0.44444444       0.11111111       0.07142857 </v>
   <v>       0.22222222       0.22222222       0.07142857 </v>
   <v>       0.33333333       0.22222222       0.07142857 </v>
   <v>       0.44444444       0.22222222       0.07142857 </v>
   <v>       0.33333333       0.33333333       0.07142857 </v>
   <v>       0.44444444       0.33333333       0.07142857 </v>
   <v>       0.44444444       0.44444444       0.07142857 </v>
   <v>       0.00000000       0.00000000       0.14285714 </v>
   <v>       0.11111111       0.00000000       0.14285714 </v>
   <v>       0.22222222       0.00000000       0.14285714 </v>
   <v>       0.33333333       0.00000000       0.14285714 </v>
   <v>       0.44444444       0.00000000       0.14285714 </v>
   <v>       0.11111111       0.11111111       0.14285714 </v>
   <v>       0.22222222       0.11111111       0.14285714 </v>
   <v>       0.33333333       0.11111111       0.14285714 </v>
   <v>       0.44444444       0.11111111       0.14285714 </v>
   <v>       0.22222222       0.22222222       0.14285714 </v>
   <v>       0.33333333       0.22222222       0.14285714 </v>
   <v>       0.44444444       0.22222222       0.14285714 </v>
   <v>       0.33333333       0.33333333       0.14285714 </v>
   <v>       0.44444444       0.33333333       0.14285714 </v>
   <v>       0.44444444       0.44444444       0.14285714 </v>
   <v>       0.00000000       0.00000000       0.21428571 </v>
   <v>       0.11111111       0.00000000       0.21428571 </v>
   <v>       0.22222222       0.00000000       0.21428571 </v>
   <v>       0.33333333       0.00000000       0.21428571 </v>
   <v>       0.44444444       0.00000000       0.21428571 </v>
   <v>       0.11111111       0.11111111       0.21428571 </v>
   <v>       0.22222222       0.11111111       0.21428571 </v>
   <v>       0.33333333       0.11111111       0.21428571 </v>
   <v>       0.44444444       0.11111111       0.21428571 </v>
   <v>       0.22222222       0.22222222       0.21428571 </v>
   <v>       0.33333333       0.22222222       0.21428571 </v>
   <v>       0.44444444       0.22222222       0.21428571 </v>
   <v>       0.33333333       0.33333333       0.21428571 </v>
   <v>       0.44444444       0.33333333       0.21428571 </v>
   <v>       0.44444444       0.44444444       0.21428571 </v>
   <v>       0.00000000       0.00000000       0.28571429 </v>
   <v>       0.11111111       0.00000000       0.28571429 </v>
   <v>       0.22222222       0.00000000       0.28571429 </v>
   <v>       0.33333333       0.00000000       0.28571429 </v>
   <v>       0.44444444       0.00000000       0.28571429 </v>
   <v>       0.11111111       0.11111111       0.28571429 </v>
   <v>       0.22222222       0.11111111       0.28571429 </v>
   <v>       0.33333333       0.11111111       0.28571429 </v>
   <v>       0.44444444       0.11111111       0.28571429 </v>
   <v>       0.22222222       0.22222222       0.28571429 </v>
   <v>       0.33333333       0.22222222       0.28571429 </v>
   <v>       0.44444444       0.22222222       0.28571429 </v>
   <v>       0.33333333       0.33333333       0.28571429 </v>
   <v>       0.44444444       0.33333333       0.28571429 </v>
   <v>       0.44444444       0.44444444       0.28571429 </v>
   <v>       0.00000000       0.00000000       0.35714286 </v>
   <v>       0.11111111       0.00000000       0.35714286 </v>
   <v>       0.22222222      -0.00000000       0.35714286 </v>
   <v>       0.33333333      -0.00000000       0.35714286 </v>
   <v>       0.44444444       0.00000000       0.35714286 </v>
   <v>       0.11111111       0.11111111       0.35714286 </v>
   <v>       0.22222222       0.11111111       0.35714286 </v>
   <v>       0.33333333       0.11111111       0.35714286 </v>
   <v>       0.44444444       0.11111111       0.35714286 </v>
   <v>       0.22222222       0.22222222       0.35714286 </v>
   <v>       0.33333333       0.22222222       0.35714286 </v>
   <v>       0.44444444       0.22222222       0.35714286 </v>
   <v>       0.33333333       0.33333333       0.35714286 </v>
   <v>       0.44444444       0.33333333       0.35714286 </v>
   <v>       0.44444444       0.44444444       0.35714286 </v>
   <v>       0.00000000       0.00000000       0.42857143 </v>
   <v>       0.11111111       0.00000000       0.42857143 </v>
   <v>       0.22222222       0.00000000       0.42857143 </v>
   <v>       0.33333333       0.00000000       0.42857143 </v>
   <v>       0.44444444       0.00000000       0.42857143 </v>
   <v>       0.11111111       0.11111111       0.42857143 </v>
   <v>       0.22222222       0.11111111       0.42857143 </v>
   <v>       0.33333333       0.11111111       0.42857143 </v>
   <v>       0.44444444       0.11111111       0.42857143 </v>
   <v>       0.22222222       0.22222222       0.42857143 </v>
   <v>       0.33333333       0.22222222       0.42857143 </v>
   <v>       0.44444444       0.22222222       0.42857143 </v>
   <v>       0.33333333       0.33333333       0.42857143 </v>
   <v>       0.44444444       0.33333333       0.42857143 </v>
   <v>       0.44444444       0.44444444       0.42857143 </v>
   <v>       0.00000000       0.00000000       0.50000000 </v>
   <v>       0.11111111       0.00000000       0.50000000 </v>
   <v>       0.22222222       0.00000000       0.50000000 </v>
   <v>       0.33333333       0.00000000       0.50000000 </v>
   <v>       0.44444444       0.00000000       0.50000000 </v>
   <v>       0.11111111       0.11111111       0.50000000 </v>
   <v>       0.22222222       0.11111111       0.50000000 </v>
   <v>       0.33333333       0.11111111       0.50000000 </v>
   <v>       0.44444444       0.11111111       0.50000000 </v>
   <v>       0.22222222       0.22222222       0.50000000 </v>
   <v>       0.33333333       0.22222222       0.50000000 </v>
   <v>       0.44444444       0.22222222       0.50000000 </v>
   <v>       0.33333333       0.33333333       0.50000000 </v>
   <v>       0.44444444       0.33333333       0.50000000 </v>
   <v>       0.44444444       0.44444444       0.50000000 </v>
  </varray>
  <varray name="weights" >
   <v>       0.00088183 </v>
   <v>       0.00352734 </v>
   <v>       0.00352734 </v>
   <v>       0.00352734 </v>
   <v>       0.00352734 </v>
   <v>       0.00352734 </v>
   <v>       0.00705467 </v>
   <v>       0.00705467 </v>
   <v>       0.00705467 </v>
   <v>       0.00352734 </v>
   <v>       0.00705467 </v>
   <v>       0.00705467 </v>
   <v>       0.00352734 </v>
   <v>       0.00705467 </v>
   <v>       0.00352734 </v>
   <v>       0.00176367 </v>
   <v>       0.00705467 </v>
   <v>       0.00705467 </v>
   <v>       0.00705467 </v>
   <v>       0.00705467 </v>
   <v>       0.00705467 </v>
   <v>       0.01410935 </v>
   <v>       0.01410935 </v>
   <v>       0.01410935 </v>
   <v>       0.00705467 </v>
   <v>       0.01410935 </v>
   <v>       0.01410935 </v>
   <v>       0.00705467 </v>
   <v>       0.01410935 </v>
   <v>       0.00705467 </v>
   <v>       0.00176367 </v>
   <v>       0.00705467 </v>
   <v>       0.00705467 </v>
   <v>       0.00705467 </v>
   <v>       0.00705467 </v>
   <v>       0.00705467 </v>
   <v>       0.01410935 </v>
   <v>       0.01410935 </v>
   <v>       0.01410935 </v>
   <v>       0.00705467 </v>
   <v>       0.01410935 </v>
   <v>       0.01410935 </v>
   <v>       0.00705467 </v>
   <v>       0.01410935 </v>
   <v>       0.00705467 </v>
   <v>       0.00176367 </v>
   <v>       0.00705467 </v>
   <v>       0.00705467 </v>
   <v>       0.00705467 </v>
   <v>       0.00705467 </v>
   <v>       0.00705467 </v>
   <v>       0.01410935 </v>
   <v>       0.01410935 </v>
   <v>       0.01410935 </v>
   <v>       0.00705467 </v>
   <v>       0.01410935 </v>
   <v>       0.01410935 </v>
   <v>       0.00705467 </v>
   <v>       0.01410935 </v>
   <v>       0.00705467 </v>
   <v>       0.00176367 </v>
   <v>       0.00705467 </v>
   <v>       0.00705467 </v>
   <v>       0.00705467 </v>
   <v>       0.00705467 </v>
   <v>       0.00705467 </v>
   <v>       0.01410935 </v>
   <v>       0.01410935 </v>
   <v>       0.01410935 </v>
   <v>       0.00705467 </v>
   <v>       0.01410935 </v>
   <v>       0.01410935 </v>
   <v>       0.00705467 </v>
   <v>       0.01410935 </v>
   <v>       0.00705467 </v>
   <v>       0.00176367 </v>
   <v>       0.00705467 </v>
   <v>       0.00705467 </v>
   <v>       0.00705467 </v>
   <v>       0.00705467 </v>
   <v>       0.00705467 </v>
   <v>       0.01410935 </v>
   <v>       0.01410935 </v>
   <v>       0.01410935 </v>
   <v>       0.00705467 </v>
   <v>       0.01410935 </v>
   <v>       0.01410935 </v>
   <v>       0.00705467 </v>
   <v>       0.01410935 </v>
   <v>       0.00705467 </v>
   <v>       0.00176367 </v>
   <v>       0.00705467 </v>
   <v>       0.00705467 </v>
   <v>       0.00705467 </v>
   <v>       0.00705467 </v>
   <v>       0.00705467 </v>
   <v>       0.01410935 </v>
   <v>       0.01410935 </v>
   <v>       0.01410935 </v>
   <v>       0.00705467 </v>
   <v>       0.01410935 </v>
   <v>       0.01410935 </v>
   <v>       0.00705467 </v>
   <v>       0.01410935 </v>
   <v>       0.00705467 </v>
   <v>       0.00088183 </v>
   <v>       0.00352734 </v>
   <v>       0.00352734 </v>
   <v>       0.00352734 </v>
   <v>       0.00352734 </v>
   <v>       0.00352734 </v>
   <v>       0.00705467 </v>
   <v>       0.00705467 </v>
   <v>       0.00705467 </v>
   <v>       0.00352734 </v>
   <v>       0.00705467 </v>
   <v>       0.00705467 </v>
   <v>       0.00352734 </v>
   <v>       0.00705467 </v>
   <v>       0.00352734 </v>
  </varray>
 </kpoints>
 <parameters>
  <separator name="general" >
   <i type="string" name="SYSTEM">unknown system</i>
   <i type="logical" name="LCOMPAT"> F  </i>
  </separator>
  <separator name="electronic" >
   <i type="string" name="PREC">accura</i>
   <i name="ENMAX">    400.00000000</i>
   <i name="ENAUG">    605.39200000</i>
   <i name="EDIFF">      0.00000001</i>
   <i type="int" name="IALGO">    38</i>
   <i type="int" name="IWAVPR">    11</i>
   <i type="int" name="NBANDS">    48</i>
   <i name="NELECT">     48.00000000</i>
   <i type="int" name="TURBO">     0</i>
   <i type="int" name="IRESTART">     0</i>
   <i type="int" name="NREBOOT">     0</i>
   <i type="int" name="NMIN">     0</i>
   <i name="EREF">      0.00000000</i>
   <separator name="electronic smearing" >
    <i type="int" name="ISMEAR">     0</i>
    <i name="SIGMA">      0.01000000</i>
    <i name="KSPACING">      0.50000000</i>
    <i type="logical" name="KGAMMA"> T  </i>
   </separator>
   <separator name="electronic projectors" >
    <i type="logical" name="LREAL"> F  </i>
    <v name="ROPT">      0.00000000      0.00000000</v>
    <i type="int" name="LMAXPAW">  -100</i>
    <i type="int" name="LMAXMIX">     2</i>
    <i type="logical" name="NLSPLINE"> F  </i>
   </separator>
   <separator name="electronic startup" >
    <i type="int" name="ISTART">     0</i>
    <i type="int" name="ICHARG">     2</i>
    <i type="int" name="INIWAV">     1</i>
   </separator>
   <separator name="electronic spin" >
    <i type="int" name="ISPIN">     1</i>
    <i type="logical" name="LNONCOLLINEAR"> F  </i>
    <v name="MAGMOM">      1.00000000      1.00000000      1.00000000      1.00000000      1.00000000      1.00000000</v>
    <i name="NUPDOWN">     -1.00000000</i>
    <i type="logical" name="LSORBIT"> F  </i>
    <v name="SAXIS">      0.00000000      0.00000000      1.00000000</v>
    <i type="logical" name="LSPIRAL"> F  </i>
    <v name="QSPIRAL">      0.00000000      0.00000000      0.00000000</v>
    <i type="logical" name="LZEROZ"> F  </i>
   </separator>
   <separator name="electronic exchange-correlation" >
    <i type="logical" name="LASPH"> F  </i>
    <i type="logical" name="LMETAGGA"> F  </i>
   </separator>
   <separator name="electronic convergence" >
    <i type="int" name="NELM">    60</i>
    <i type="int" name="NELMDL">     0</i>
    <i type="int" name="NELMIN">     2</i>
    <i name="ENINI">    400.00000000</i>
    <separator name="electronic convergence detail" >
     <i type="logical" name="LDIAG"> T  </i>
     <i type="logical" name="LSUBROT"> F  </i>
     <i name="WEIMIN">      0.00100000</i>
     <i name="EBREAK">      0.00000000</i>
     <i name="DEPER">      0.30000000</i>
     <i type="int" name="NRMM">     4</i>
     <i name="TIME">      0.40000000</i>
    </separator>
   </separator>
   <separator name="electronic mixer" >
    <i name="AMIX">      0.40000000</i>
    <i name="BMIX">      1.00000000</i>
    <i name="AMIN">      0.10000000</i>
    <i name="AMIX_MAG">      1.60000000</i>
    <i name="BMIX_MAG">      1.00000000</i>
    <separator name="electronic mixer details" >
     <i type="int" name="IMIX">     4</i>
     <i type="logical" name="MIXFIRST"> F  </i>
     <i type="int" name="MAXMIX">   -45</i>
     <i name="WC">    100.00000000</i>
     <i type="int" name="INIMIX">     1</i>
     <i type="int" name="MIXPRE">     1</i>
     <i type="int" name="MREMOVE">     5</i>
    </separator>
   </separator>
   <separator name="electronic dipolcorrection" >
    <i type="logical" name="LDIPOL"> F  </i>
    <i type="logical" name="LMONO"> F  </i>
    <i type="int" name="IDIPOL">     0</i>
    <i name="EPSILON">      1.00000000</i>
    <v name="DIPOL">   -100.00000000   -100.00000000   -100.00000000</v>
    <i name="EFIELD">      0.00000000</i>
   </separator>
  </separator>
  <separator name="grids" >
   <i type="int" name="NGX">    30</i>
   <i type="int" name="NGY">    30</i>
   <i type="int" name="NGZ">    20</i>
   <i type="int" name="NGXF">    60</i>
   <i type="int" name="NGYF">    60</i>
   <i type="int" name="NGZF">    40</i>
   <i type="logical" name="ADDGRID"> F  </i>
  </separator>
  <separator name="ionic" >
   <i type="int" name="NSW">     1</i>
   <i type="int" name="IBRION">     8</i>
   <i type="int" name="MDALGO">     0</i>
   <i type="int" name="ISIF">     2</i>
   <i name="PSTRESS">      0.00000000</i>
   <i name="EDIFFG">      0.00000010</i>
   <i type="int" name="NFREE">     0</i>
   <i name="POTIM">      0.50000000</i>
   <i name="SMASS">     -3.00000000</i>
   <i name="SCALEE">      1.00000000</i>
  </separator>
  <separator name="ionic md" >
   <i name="TEBEG">      0.00010000</i>
   <i name="TEEND">      0.00010000</i>
   <i type="int" name="NBLOCK">     1</i>
   <i type="int" name="KBLOCK">     1</i>
   <i type="int" name="NPACO">   256</i>
   <i name="APACO">     16.00000000</i>
  </separator>
  <separator name="symmetry" >
   <i type="int" name="ISYM">     2</i>
   <i name="SYMPREC">      0.00001000</i>
  </separator>
  <separator name="dos" >
   <i type="int" name="LORBIT">     0</i>
   <v name="RWIGS">     -1.00000000     -1.00000000</v>
   <i type="int" name="NEDOS">   301</i>
   <i name="EMIN">     10.00000000</i>
   <i name="EMAX">    -10.00000000</i>
   <i name="EFERMI">      0.00000000</i>
  </separator>
  <separator name="writing" >
   <i type="int" name="NWRITE">     2</i>
   <i type="logical" name="LWAVE"> F  </i>
   <i type="logical" name="LDOWNSAMPLE"> F  </i>
   <i type="logical" name="LCHARG"> F  </i>
   <i type="logical" name="LPARD"> F  </i>
   <i type="logical" name="LVTOT"> F  </i>
   <i type="logical" name="LVHAR"> F  </i>
   <i type="logical" name="LELF"> F  </i>
   <i type="logical" name="LOPTICS"> F  </i>
   <v name="STM">      0.00000000      0.00000000      0.00000000      0.00000000      0.00000000      0.00000000      0.00000000</v>
  </separator>
  <separator name="performance" >
   <i type="int" name="NPAR">    48</i>
   <i type="int" name="NSIM">     4</i>
   <i type="int" name="NBLK">    -1</i>
   <i type="logical" name="LPLANE"> T  </i>
   <i type="logical" name="LSCALAPACK"> F  </i>
   <i type="logical" name="LSCAAWARE"> F  </i>
   <i type="logical" name="LSCALU"> F  </i>
   <i type="logical" name="LASYNC"> F  </i>
   <i type="logical" name="LORBITALREAL"> F  </i>
  </separator>
  <separator name="miscellaneous" >
   <i type="int" name="IDIOT">     3</i>
   <i type="int" name="ISPECIAL">     0</i>
   <i type="logical" name="LMUSIC"> F  </i>
   <v name="POMASS">     16.00000000     47.88000000</v>
   <v name="DARWINR">      0.00000000      0.00000000</v>
   <v name="DARWINV">      1.00000000      1.00000000</v>
   <i type="logical" name="LCORR"> T  </i>
  </separator>
  <i type="logical" name="GGA_COMPAT"> T  </i>
  <i type="logical" name="LBERRY"> F  </i>
  <i type="int" name="ICORELEVEL">     0</i>
  <i type="logical" name="LDAU"> F  </i>
  <i type="int" name="I_CONSTRAINED_M">     0</i>
  <separator name="electronic exchange-correlation" >
   <i type="string" name="GGA">--</i>
   <i type="int" name="VOSKOWN">     0</i>
   <i type="logical" name="LHFCALC"> F  </i>
   <i type="string" name="PRECFOCK"></i>
   <i type="logical" name="LSYMGRAD"> F  </i>
   <i type="logical" name="LHFONE"> F  </i>
   <i type="logical" name="LRHFCALC"> F  </i>
   <i type="logical" name="LTHOMAS"> F  </i>
   <i type="logical" name="LMODELHF"> F  </i>
   <i name="ENCUT4O">     -1.00000000</i>
   <i type="int" name="EXXOEP">     0</i>
   <i type="int" name="FOURORBIT">     0</i>
   <i name="AEXX">      0.00000000</i>
   <i name="HFALPHA">      0.00000000</i>
   <i name="MCALPHA">      0.00000000</i>
   <i name="ALDAX">      1.00000000</i>
   <i name="AGGAX">      1.00000000</i>
   <i name="ALDAC">      1.00000000</i>
   <i name="AGGAC">      1.00000000</i>
   <i type="int" name="NKREDX">     1</i>
   <i type="int" name="NKREDY">     1</i>
   <i type="int" name="NKREDZ">     1</i>
   <i type="logical" name="SHIFTRED"> F  </i>
   <i type="logical" name="ODDONLY"> F  </i>
   <i type="logical" name="EVENONLY"> F  </i>
   <i type="int" name="LMAXFOCK">     0</i>
   <i type="int" name="NMAXFOCKAE">     0</i>
   <i type="logical" name="LFOCKAEDFT"> F  </i>
   <i name="HFSCREEN">      0.00000000</i>
   <i name="HFSCREENC">      0.00000000</i>
   <i type="int" name="NBANDSGWLOW">     0</i>
  </separator>
  <separator name="vdW DFT" >
   <i type="logical" name="LUSE_VDW"> F  </i>
   <i name="Zab_VDW">     -0.84910000</i>
   <i name="PARAM1">      0.12340000</i>
   <i name="PARAM2">      1.00000000</i>
   <i name="PARAM3">      0.00000000</i>
  </separator>
  <separator name="model GW" >
   <i type="int" name="MODEL_GW">     0</i>
   <i name="MODEL_EPS0">      5.95091656</i>
   <i name="MODEL_ALPHA">      1.00000000</i>
  </separator>
  <separator name="linear response parameters" >
   <i type="logical" name="LEPSILON"> T  </i>
   <i type="logical" name="LRPA"> F  </i>
   <i type="logical" name="LNABLA"> F  </i>
   <i type="logical" name="LVEL"> F  </i>
   <i type="int" name="KINTER">     0</i>
   <i name="CSHIFT">      0.10000000</i>
   <i name="OMEGAMAX">     -1.00000000</i>
   <i name="DEG_THRESHOLD">      0.00200000</i>
   <i name="RTIME">     -0.10000000</i>
   <i name="WPLASMAI">      0.00000000</i>
   <v name="DFIELD">      0.00000000      0.00000000      0.00000000</v>
   <v name="WPLASMA">      0.00000000      0.00000000      0.00000000      0.00000000      0.00000000      0.00000000      0.00000000      0.00000000      0.00000000</v>
  </separator>
  <separator name="orbital magnetization" >
   <i type="logical" name="NUCIND"> F  </i>
   <v name="MAGPOS">      0.00000000      0.00000000      0.00000000</v>
   <i type="logical" name="LNICSALL"> T  </i>
   <i type="logical" name="ORBITALMAG"> F  </i>
   <i type="logical" name="LMAGBLOCH"> F  </i>
   <i type="logical" name="LCHIMAG"> F  </i>
   <i type="logical" name="LGAUGE"> T  </i>
   <i type="int" name="MAGATOM">     0</i>
   <v name="MAGDIPOL">      0.00000000      0.00000000      0.00000000</v>
   <v name="AVECCONST">      0.00000000      0.00000000      0.00000000</v>
  </separator>
  <separator name="response functions" >
   <i type="logical" name="LADDER"> F  </i>
   <i type="logical" name="LRPAFORCE"> F  </i>
   <i type="logical" name="LFXC"> F  </i>
   <i type="logical" name="LHARTREE"> T  </i>
   <i type="int" name="IBSE">     0</i>
   <v type="int" name="KPOINT">    -1     0     0     0</v>
   <i type="logical" name="LTCTE"> F  </i>
   <i type="logical" name="LTETE"> F  </i>
   <i type="logical" name="LTRIPLET"> F  </i>
   <i type="logical" name="LFXCEPS"> F  </i>
   <i type="logical" name="LFXHEG"> F  </i>
   <i type="int" name="NATURALO">     2</i>
   <i type="logical" name="L2ORDER"> F  </i>
   <i type="logical" name="LMP2LT"> F  </i>
   <i type="logical" name="LUSEW"> F  </i>
   <i name="ENCUTGW">     -2.00000000</i>
   <i name="ENCUTGWSOFT">     -2.00000000</i>
   <i name="ENCUTLF">     -1.00000000</i>
   <i type="int" name="LMAXMP2">    -1</i>
   <i name="SCISSOR">      0.00000000</i>
   <i type="int" name="NOMEGA">     0</i>
   <i type="int" name="NOMEGAR">     0</i>
   <i type="int" name="NBANDSGW">    -1</i>
   <i type="int" name="NBANDSO">    -1</i>
   <i type="int" name="NBANDSV">    -1</i>
   <i type="int" name="NELM">     1</i>
   <i type="int" name="NELMHF">     1</i>
   <i type="int" name="DIM">     3</i>
   <i type="int" name="ANTIRES">     0</i>
   <i name="OMEGAMAX">    -30.00000000</i>
   <i name="OMEGAMIN">    -30.00000000</i>
   <i name="OMEGATL">   -200.00000000</i>
   <i type="int" name="OMEGAGRID">   140</i>
   <i name="CSHIFT">     -0.10000000</i>
   <i type="logical" name="SELFENERGY"> F  </i>
   <i type="logical" name="LSPECTRAL"> F  </i>
   <i type="logical" name="LSPECTRALGW"> F  </i>
   <i type="logical" name="LSINGLES"> F  </i>
   <i type="logical" name="LFERMIGW"> F  </i>
   <i type="logical" name="ODDONLYGW"> F  </i>
   <i type="logical" name="EVENONLYGW"> F  </i>
   <i type="int" name="NKREDLFX">     1</i>
   <i type="int" name="NKREDLFY">     1</i>
   <i type="int" name="NKREDLFZ">     1</i>
   <i type="int" name="MAXMEM">  2800</i>
   <i type="int" name="TELESCOPE">     0</i>
   <i type="int" name="TAUPAR">     1</i>
   <i type="int" name="OMEGAPAR">    -1</i>
   <i name="LAMBDA">      1.00000000</i>
  </separator>
  <separator name="External order field" >
   <i name="OFIELD_KAPPA">      0.00000000</i>
   <v name="OFIELD_K">      0.00000000      0.00000000      0.00000000</v>
   <i name="OFIELD_Q6_NEAR">      0.00000000</i>
   <i name="OFIELD_Q6_FAR">      0.00000000</i>
   <i name="OFIELD_A">      0.00000000</i>
  </separator>
 </parameters>
 <atominfo>
  <atoms>       6 </atoms>
  <types>       2 </types>
  <array name="atoms" >
   <dimension dim="1">ion</dimension>
   <field type="string">element</field>
   <field type="int">atomtype</field>
   <set>
    <rc><c>O </c><c>   1</c></rc>
    <rc><c>O </c><c>   1</c></rc>
    <rc><c>O </c><c>   1</c></rc>
    <rc><c>O </c><c>   1</c></rc>
    <rc><c>Ti</c><c>   2</c></rc>
    <rc><c>Ti</c><c>   2</c></rc>
   </set>
  </array>
  <array name="atomtypes" >
   <dimension dim="1">type</dimension>
   <field type="int">atomspertype</field>
   <field type="string">element</field>
   <field>mass</field>
   <field>valence</field>
   <field type="string">pseudopotential</field>
   <set>
    <rc><c>   4</c><c>O </c><c>     16.00000000</c><c>      6.00000000</c><c>  PAW O 22Mar2012                       </c></rc>
    <rc><c>   2</c><c>Ti</c><c>     47.88000000</c><c>     12.00000000</c><c>  PAW Ti_sv 26Sep2005                   </c></rc>
   </set>
  </array>
 </atominfo>
 <structure name="initialpos" >
  <crystal>
   <varray name="basis" >
    <v>       4.52075512       0.00000000       0.00000000 </v>
    <v>       0.00000000       4.52075512       0.00000000 </v>
    <v>       0.00000000       0.00000000       2.91180238 </v>
   </varray>
   <i name="volume">     59.50916559 </i>
   <varray name="rec_basis" >
    <v>       0.22120198      -0.00000000       0.00000000 </v>
    <v>       0.00000000       0.22120198       0.00000000 </v>
    <v>      -0.00000000      -0.00000000       0.34342990 </v>
   </varray>
  </crystal>
  <varray name="positions" >
   <v>       0.69668778       0.69668778       0.50000000 </v>
   <v>       0.19668778       0.80331222       0.00000000 </v>
   <v>       0.80331222       0.19668778       0.00000000 </v>
   <v>       0.30331222       0.30331222       0.50000000 </v>
   <v>       0.50000000       0.50000000       0.00000000 </v>
   <v>       0.00000000       0.00000000       0.50000000 </v>
  </varray>
 </structure>
 <calculation>
  <scstep>
   <time name="dav">    4.09    4.11</time>
   <time name="total">    4.11    4.13</time>
   <energy>
    <i name="alphaZ">    205.28601009 </i>
    <i name="ewald">  -3656.69846795 </i>
    <i name="hartreedc">  -1219.08730134 </i>
    <i name="XCdc">    239.21012549 </i>
    <i name="pawpsdc">   3907.36201128 </i>
    <i name="pawaedc">  -3883.05412175 </i>
    <i name="eentropy">     -0.00000000 </i>
    <i name="bandstr">   -419.99591911 </i>
    <i name="atom">   4903.01198085 </i>
    <i name="e_fr_energy">     76.03431757 </i>
    <i name="e_wo_entrp">     76.03431757 </i>
    <i name="e_0_energy">     76.03431757 </i>
   </energy>
  </scstep>
  <scstep>
   <time name="dav">    6.90    6.90</time>
   <time name="total">    6.90    6.90</time>
   <energy>
    <i name="e_fr_energy">    -72.29759495 </i>
    <i name="e_wo_entrp">    -72.29759495 </i>
    <i name="e_0_energy">    -72.29759495 </i>
   </energy>
  </scstep>
  <scstep>
   <time name="dav">    5.88    5.91</time>
   <time name="total">    5.88    5.91</time>
   <energy>
    <i name="e_fr_energy">    -75.24205933 </i>
    <i name="e_wo_entrp">    -75.24205933 </i>
    <i name="e_0_energy">    -75.24205933 </i>
   </energy>
  </scstep>
  <scstep>
   <time name="dav">    7.75    7.76</time>
   <time name="total">    7.76    7.76</time>
   <energy>
    <i name="e_fr_energy">    -75.33079061 </i>
    <i name="e_wo_entrp">    -75.33079061 </i>
    <i name="e_0_energy">    -75.33079061 </i>
   </energy>
  </scstep>
  <scstep>
   <time name="dav">    5.65    5.65</time>
   <time name="total">    5.69    5.70</time>
   <energy>
    <i name="e_fr_energy">    -75.33093293 </i>
    <i name="e_wo_entrp">    -75.33093293 </i>
    <i name="e_0_energy">    -75.33093293 </i>
   </energy>
  </scstep>
  <scstep>
   <time name="dav">    7.68    8.19</time>
   <time name="total">    7.73    8.24</time>
   <energy>
    <i name="e_fr_energy">    -60.09523622 </i>
    <i name="e_wo_entrp">    -60.09523622 </i>
    <i name="e_0_energy">    -60.09523622 </i>
   </energy>
  </scstep>
  <scstep>
   <time name="dav">    4.75    4.75</time>
   <time name="total">    4.80    4.80</time>
   <energy>
    <i name="e_fr_energy">    -59.12429075 </i>
    <i name="e_wo_entrp">    -59.12429075 </i>
    <i name="e_0_energy">    -59.12429075 </i>
   </energy>
  </scstep>
  <scstep>
   <time name="dav">    6.64    6.64</time>
   <time name="total">    6.69    6.69</time>
   <energy>
    <i name="e_fr_energy">    -59.75458778 </i>
    <i name="e_wo_entrp">    -59.75458778 </i>
    <i name="e_0_energy">    -59.75458778 </i>
   </energy>
  </scstep>
  <scstep>
   <time name="dav">    5.03    5.03</time>
   <time name="total">    5.08    5.08</time>
   <energy>
    <i name="e_fr_energy">    -58.86416267 </i>
    <i name="e_wo_entrp">    -58.86416267 </i>
    <i name="e_0_energy">    -58.86416267 </i>
   </energy>
  </scstep>
  <scstep>
   <time name="dav">    7.57    7.58</time>
   <time name="total">    7.62    7.63</time>
   <energy>
    <i name="e_fr_energy">    -58.82952309 </i>
    <i name="e_wo_entrp">    -58.82952309 </i>
    <i name="e_0_energy">    -58.82952309 </i>
   </energy>
  </scstep>
  <scstep>
   <time name="dav">    5.95    5.95</time>
   <time name="total">    6.00    6.00</time>
   <energy>
    <i name="e_fr_energy">    -58.83074560 </i>
    <i name="e_wo_entrp">    -58.83074560 </i>
    <i name="e_0_energy">    -58.83074560 </i>
   </energy>
  </scstep>
  <scstep>
   <time name="dav">    8.22    8.22</time>
   <time name="total">    8.27    8.27</time>
   <energy>
    <i name="e_fr_energy">    -58.83017223 </i>
    <i name="e_wo_entrp">    -58.83017223 </i>
    <i name="e_0_energy">    -58.83017223 </i>
   </energy>
  </scstep>
  <scstep>
   <time name="dav">    4.82    4.82</time>
   <time name="total">    4.87    4.87</time>
   <energy>
    <i name="e_fr_energy">    -58.83017486 </i>
    <i name="e_wo_entrp">    -58.83017486 </i>
    <i name="e_0_energy">    -58.83017486 </i>
   </energy>
  </scstep>
  <scstep>
   <time name="dav">    7.74    7.74</time>
   <time name="total">    7.79    7.79</time>
   <energy>
    <i name="e_fr_energy">    -58.83017442 </i>
    <i name="e_wo_entrp">    -58.83017442 </i>
    <i name="e_0_energy">    -58.83017442 </i>
   </energy>
  </scstep>
  <scstep>
   <time name="dav">    7.04    7.04</time>
   <time name="total">    7.09    7.09</time>
   <energy>
    <i name="e_fr_energy">    -58.83017434 </i>
    <i name="e_wo_entrp">    -58.83017434 </i>
    <i name="e_0_energy">    -58.83017434 </i>
   </energy>
  </scstep>
  <scstep>
   <time name="dav">    6.58    6.58</time>
   <time name="total">    6.63    6.63</time>
   <energy>
    <i name="e_fr_energy">    -58.83017431 </i>
    <i name="e_wo_entrp">    -58.83017431 </i>
    <i name="e_0_energy">    -58.83017431 </i>
   </energy>
  </scstep>
  <scstep>
   <time name="dav">    2.62    2.62</time>
   <time name="total">    2.63    2.63</time>
   <energy>
    <i name="alphaZ">    205.28601009 </i>
    <i name="ewald">  -3656.69846795 </i>
    <i name="hartreedc">  -1201.94599306 </i>
    <i name="XCdc">    240.51344864 </i>
    <i name="pawpsdc">   5778.63574718 </i>
    <i name="pawaedc">  -5747.19353591 </i>
    <i name="eentropy">     -0.00000000 </i>
    <i name="bandstr">   -580.43936415 </i>
    <i name="atom">   4903.01198085 </i>
    <i name="e_fr_energy">    -58.83017431 </i>
    <i name="e_wo_entrp">    -58.83017431 </i>
    <i name="e_0_energy">    -58.83017431 </i>
   </energy>
  </scstep>
  <structure>
   <crystal>
    <varray name="basis" >
     <v>       4.52075512       0.00000000       0.00000000 </v>
     <v>       0.00000000       4.52075512       0.00000000 </v>
     <v>       0.00000000       0.00000000       2.91180238 </v>
    </varray>
    <i name="volume">     59.50916559 </i>
    <varray name="rec_basis" >
     <v>       0.22120198      -0.00000000       0.00000000 </v>
     <v>       0.00000000       0.22120198       0.00000000 </v>
     <v>      -0.00000000      -0.00000000       0.34342990 </v>
    </varray>
   </crystal>
   <varray name="positions" >
    <v>       0.69668778       0.69668778       0.50000000 </v>
    <v>       0.19668778       0.80331222       0.00000000 </v>
    <v>       0.80331222       0.19668778       0.00000000 </v>
    <v>       0.30331222       0.30331222       0.50000000 </v>
    <v>       0.50000000       0.50000000       0.00000000 </v>
    <v>       0.00000000       0.00000000       0.50000000 </v>
   </varray>
  </structure>
  <varray name="forces" >
   <v>      -0.00134272      -0.00134272      -0.00000000 </v>
   <v>      -0.00134272       0.00134272      -0.00000000 </v>
   <v>       0.00134272      -0.00134272      -0.00000000 </v>
   <v>       0.00134272       0.00134272       0.00000000 </v>
   <v>      -0.00000000       0.00000000      -0.00000000 </v>
   <v>      -0.00000000       0.00000000      -0.00000000 </v>
  </varray>
  <varray name="stress" >
   <v>     -20.27866640      -0.00000000      -0.00000000 </v>
   <v>      -0.00000000     -20.27866640      -0.00000000 </v>
   <v>      -0.00000000      -0.00000000     -19.51992381 </v>
  </varray>
  <energy>
   <i name="e_fr_energy">    -58.83017431 </i>
   <i name="e_wo_entrp">    -58.83017431 </i>
   <i name="e_0_energy">     -0.00000000 </i>
  </energy>
  <scstep>
   <time name="total">    1.03    1.04</time>
   <energy>
    <i name="e_fr_energy">   -226.93091231 </i>
    <i name="e_wo_entrp">   -226.93091231 </i>
    <i name="e_0_energy">   -226.93091231 </i>
   </energy>
  </scstep>
  <scstep>
   <time name="total">    1.21    1.21</time>
   <energy>
    <i name="e_fr_energy">   -187.22500802 </i>
    <i name="e_wo_entrp">   -187.22500802 </i>
    <i name="e_0_energy">   -187.22500802 </i>
   </energy>
  </scstep>
  <scstep>
   <time name="total">    1.23    1.23</time>
   <energy>
    <i name="e_fr_energy">   -188.64908647 </i>
    <i name="e_wo_entrp">   -188.64908647 </i>
    <i name="e_0_energy">   -188.64908647 </i>
   </energy>
  </scstep>
  <scstep>
   <time name="total">    1.10    1.10</time>
   <energy>
    <i name="e_fr_energy">   -188.93964499 </i>
    <i name="e_wo_entrp">   -188.93964499 </i>
    <i name="e_0_energy">   -188.93964499 </i>
   </energy>
  </scstep>
  <scstep>
   <time name="total">    1.09    1.09</time>
   <energy>
    <i name="e_fr_energy">   -188.97789732 </i>
    <i name="e_wo_entrp">   -188.97789732 </i>
    <i name="e_0_energy">   -188.97789732 </i>
   </energy>
  </scstep>
  <scstep>
   <time name="total">    1.09    1.13</time>
   <energy>
    <i name="e_fr_energy">   -188.98257908 </i>
    <i name="e_wo_entrp">   -188.98257908 </i>
    <i name="e_0_energy">   -188.98257908 </i>
   </energy>
  </scstep>
  <scstep>
   <time name="total">    1.09    1.09</time>
   <energy>
    <i name="e_fr_energy">   -188.98322700 </i>
    <i name="e_wo_entrp">   -188.98322700 </i>
    <i name="e_0_energy">   -188.98322700 </i>
   </energy>
  </scstep>
  <scstep>
   <time name="total">    1.09    1.09</time>
   <energy>
    <i name="e_fr_energy">   -188.98333254 </i>
    <i name="e_wo_entrp">   -188.98333254 </i>
    <i name="e_0_energy">   -188.98333254 </i>
   </energy>
  </scstep>
  <scstep>
   <time name="total">    1.09    1.09</time>
   <energy>
    <i name="e_fr_energy">   -188.98335081 </i>
    <i name="e_wo_entrp">   -188.98335081 </i>
    <i name="e_0_energy">   -188.98335081 </i>
   </energy>
  </scstep>
  <scstep>
   <time name="total">    1.09    1.09</time>
   <energy>
    <i name="e_fr_energy">   -188.98335436 </i>
    <i name="e_wo_entrp">   -188.98335436 </i>
    <i name="e_0_energy">   -188.98335436 </i>
   </energy>
  </scstep>
  <scstep>
   <time name="total">    1.09    1.09</time>
   <energy>
    <i name="e_fr_energy">   -188.98335497 </i>
    <i name="e_wo_entrp">   -188.98335497 </i>
    <i name="e_0_energy">   -188.98335497 </i>
   </energy>
  </scstep>
  <scstep>
   <time name="total">    1.09    1.09</time>
   <energy>
    <i name="e_fr_energy">   -188.98335522 </i>
    <i name="e_wo_entrp">   -188.98335522 </i>
    <i name="e_0_energy">   -188.98335522 </i>
   </energy>
  </scstep>
  <scstep>
   <time name="total">    1.12    1.12</time>
   <energy>
    <i name="e_fr_energy">   -188.98335517 </i>
    <i name="e_wo_entrp">   -188.98335517 </i>
    <i name="e_0_energy">   -188.98335517 </i>
   </energy>
  </scstep>
  <scstep>
   <time name="total">    1.12    1.12</time>
   <energy>
    <i name="e_fr_energy">   -188.98335527 </i>
    <i name="e_wo_entrp">   -188.98335527 </i>
    <i name="e_0_energy">   -188.98335527 </i>
   </energy>
  </scstep>
  <scstep>
   <time name="total">    1.09    1.09</time>
   <energy>
    <i name="e_fr_energy">   -188.98335520 </i>
    <i name="e_wo_entrp">   -188.98335520 </i>
    <i name="e_0_energy">   -188.98335520 </i>
   </energy>
  </scstep>
  <scstep>
   <time name="total">    1.09    1.09</time>
   <energy>
    <i name="e_fr_energy">   -188.98335526 </i>
    <i name="e_wo_entrp">   -188.98335526 </i>
    <i name="e_0_energy">   -188.98335526 </i>
   </energy>
  </scstep>
  <scstep>
   <time name="total">    1.09    1.09</time>
   <energy>
    <i name="e_fr_energy">   -188.98335521 </i>
    <i name="e_wo_entrp">   -188.98335521 </i>
    <i name="e_0_energy">   -188.98335521 </i>
   </energy>
  </scstep>
  <scstep>
   <time name="total">    1.03    1.03</time>
   <energy>
    <i name="e_fr_energy">   -230.63671788 </i>
    <i name="e_wo_entrp">   -230.63671788 </i>
    <i name="e_0_energy">   -230.63671788 </i>
   </energy>
  </scstep>
  <scstep>
   <time name="total">    1.21    1.21</time>
   <energy>
    <i name="e_fr_energy">   -186.30739812 </i>
    <i name="e_wo_entrp">   -186.30739812 </i>
    <i name="e_0_energy">   -186.30739812 </i>
   </energy>
  </scstep>
  <scstep>
   <time name="total">    1.23    1.23</time>
   <energy>
    <i name="e_fr_energy">   -187.67560300 </i>
    <i name="e_wo_entrp">   -187.67560300 </i>
    <i name="e_0_energy">   -187.67560300 </i>
   </energy>
  </scstep>
  <scstep>
   <time name="total">    1.10    1.14</time>
   <energy>
    <i name="e_fr_energy">   -187.98781036 </i>
    <i name="e_wo_entrp">   -187.98781036 </i>
    <i name="e_0_energy">   -187.98781036 </i>
   </energy>
  </scstep>
  <scstep>
   <time name="total">    1.09    1.10</time>
   <energy>
    <i name="e_fr_energy">   -188.03102803 </i>
    <i name="e_wo_entrp">   -188.03102803 </i>
    <i name="e_0_energy">   -188.03102803 </i>
   </energy>
  </scstep>
  <scstep>
   <time name="total">    1.10    1.10</time>
   <energy>
    <i name="e_fr_energy">   -188.03636639 </i>
    <i name="e_wo_entrp">   -188.03636639 </i>
    <i name="e_0_energy">   -188.03636639 </i>
   </energy>
  </scstep>
  <scstep>
   <time name="total">    1.10    1.14</time>
   <energy>
    <i name="e_fr_energy">   -188.03704690 </i>
    <i name="e_wo_entrp">   -188.03704690 </i>
    <i name="e_0_energy">   -188.03704690 </i>
   </energy>
  </scstep>
  <scstep>
   <time name="total">    1.09    1.09</time>
   <energy>
    <i name="e_fr_energy">   -188.03715171 </i>
    <i name="e_wo_entrp">   -188.03715171 </i>
    <i name="e_0_energy">   -188.03715171 </i>
   </energy>
  </scstep>
  <scstep>
   <time name="total">    1.09    1.10</time>
   <energy>
    <i name="e_fr_energy">   -188.03716916 </i>
    <i name="e_wo_entrp">   -188.03716916 </i>
    <i name="e_0_energy">   -188.03716916 </i>
   </energy>
  </scstep>
  <scstep>
   <time name="total">    1.09    1.10</time>
   <energy>
    <i name="e_fr_energy">   -188.03717191 </i>
    <i name="e_wo_entrp">   -188.03717191 </i>
    <i name="e_0_energy">   -188.03717191 </i>
   </energy>
  </scstep>
  <scstep>
   <time name="total">    1.09    1.10</time>
   <energy>
    <i name="e_fr_energy">   -188.03717243 </i>
    <i name="e_wo_entrp">   -188.03717243 </i>
    <i name="e_0_energy">   -188.03717243 </i>
   </energy>
  </scstep>
  <scstep>
   <time name="total">    1.09    1.10</time>
   <energy>
    <i name="e_fr_energy">   -188.03717274 </i>
    <i name="e_wo_entrp">   -188.03717274 </i>
    <i name="e_0_energy">   -188.03717274 </i>
   </energy>
  </scstep>
  <scstep>
   <time name="total">    1.09    1.09</time>
   <energy>
    <i name="e_fr_energy">   -188.03717274 </i>
    <i name="e_wo_entrp">   -188.03717274 </i>
    <i name="e_0_energy">   -188.03717274 </i>
   </energy>
  </scstep>
  <scstep>
   <time name="total">    1.09    1.09</time>
   <energy>
    <i name="e_fr_energy">   -188.03717271 </i>
    <i name="e_wo_entrp">   -188.03717271 </i>
    <i name="e_0_energy">   -188.03717271 </i>
   </energy>
  </scstep>
  <scstep>
   <time name="total">    1.09    1.09</time>
   <energy>
    <i name="e_fr_energy">   -188.03717270 </i>
    <i name="e_wo_entrp">   -188.03717270 </i>
    <i name="e_0_energy">   -188.03717270 </i>
   </energy>
  </scstep>
  <scstep>
   <time name="total">    1.09    1.09</time>
   <energy>
    <i name="e_fr_energy">   -188.03717269 </i>
    <i name="e_wo_entrp">   -188.03717269 </i>
    <i name="e_0_energy">   -188.03717269 </i>
   </energy>
  </scstep>
  <scstep>
   <time name="total">    1.09    1.09</time>
   <energy>
    <i name="e_fr_energy">   -188.03717268 </i>
    <i name="e_wo_entrp">   -188.03717268 </i>
    <i name="e_0_energy">   -188.03717268 </i>
   </energy>
  </scstep>
  <scstep>
   <time name="total">    1.04    1.04</time>
   <energy>
    <i name="e_fr_energy">   -150.76746100 </i>
    <i name="e_wo_entrp">   -150.76746100 </i>
    <i name="e_0_energy">   -150.76746100 </i>
   </energy>
  </scstep>
  <scstep>
   <time name="total">    1.21    1.24</time>
   <energy>
    <i name="e_fr_energy">   -187.97096102 </i>
    <i name="e_wo_entrp">   -187.97096102 </i>
    <i name="e_0_energy">   -187.97096102 </i>
   </energy>
  </scstep>
  <scstep>
   <time name="total">    1.23    1.23</time>
   <energy>
    <i name="e_fr_energy">   -189.38486244 </i>
    <i name="e_wo_entrp">   -189.38486244 </i>
    <i name="e_0_energy">   -189.38486244 </i>
   </energy>
  </scstep>
  <scstep>
   <time name="total">    1.09    1.09</time>
   <energy>
    <i name="e_fr_energy">   -189.64348543 </i>
    <i name="e_wo_entrp">   -189.64348543 </i>
    <i name="e_0_energy">   -189.64348543 </i>
   </energy>
  </scstep>
  <scstep>
   <time name="total">    2.63    2.63</time>
   <energy>
    <i name="e_fr_energy">   -189.67836065 </i>
    <i name="e_wo_entrp">   -189.67836065 </i>
    <i name="e_0_energy">   -189.67836065 </i>
   </energy>
  </scstep>
  <scstep>
   <time name="total">    1.09    1.10</time>
   <energy>
    <i name="e_fr_energy">   -189.68274675 </i>
    <i name="e_wo_entrp">   -189.68274675 </i>
    <i name="e_0_energy">   -189.68274675 </i>
   </energy>
  </scstep>
  <scstep>
   <time name="total">    1.09    1.09</time>
   <energy>
    <i name="e_fr_energy">   -189.68333534 </i>
    <i name="e_wo_entrp">   -189.68333534 </i>
    <i name="e_0_energy">   -189.68333534 </i>
   </energy>
  </scstep>
  <scstep>
   <time name="total">    1.09    1.10</time>
   <energy>
    <i name="e_fr_energy">   -189.68343542 </i>
    <i name="e_wo_entrp">   -189.68343542 </i>
    <i name="e_0_energy">   -189.68343542 </i>
   </energy>
  </scstep>
  <scstep>
   <time name="total">    1.09    1.09</time>
   <energy>
    <i name="e_fr_energy">   -189.68344399 </i>
    <i name="e_wo_entrp">   -189.68344399 </i>
    <i name="e_0_energy">   -189.68344399 </i>
   </energy>
  </scstep>
  <scstep>
   <time name="total">    1.09    1.10</time>
   <energy>
    <i name="e_fr_energy">   -189.68346001 </i>
    <i name="e_wo_entrp">   -189.68346001 </i>
    <i name="e_0_energy">   -189.68346001 </i>
   </energy>
  </scstep>
  <scstep>
   <time name="total">    1.09    1.09</time>
   <energy>
    <i name="e_fr_energy">   -189.68344596 </i>
    <i name="e_wo_entrp">   -189.68344596 </i>
    <i name="e_0_energy">   -189.68344596 </i>
   </energy>
  </scstep>
  <scstep>
   <time name="total">    1.09    1.09</time>
   <energy>
    <i name="e_fr_energy">   -189.68346752 </i>
    <i name="e_wo_entrp">   -189.68346752 </i>
    <i name="e_0_energy">   -189.68346752 </i>
   </energy>
  </scstep>
  <scstep>
   <time name="total">    1.09    1.09</time>
   <energy>
    <i name="e_fr_energy">   -189.68344331 </i>
    <i name="e_wo_entrp">   -189.68344331 </i>
    <i name="e_0_energy">   -189.68344331 </i>
   </energy>
  </scstep>
  <scstep>
   <time name="total">    1.09    1.09</time>
   <energy>
    <i name="e_fr_energy">   -189.68347487 </i>
    <i name="e_wo_entrp">   -189.68347487 </i>
    <i name="e_0_energy">   -189.68347487 </i>
   </energy>
  </scstep>
  <scstep>
   <time name="total">    1.09    1.09</time>
   <energy>
    <i name="e_fr_energy">   -189.68344065 </i>
    <i name="e_wo_entrp">   -189.68344065 </i>
    <i name="e_0_energy">   -189.68344065 </i>
   </energy>
  </scstep>
  <scstep>
   <time name="total">    1.09    1.12</time>
   <energy>
    <i name="e_fr_energy">   -189.68347972 </i>
    <i name="e_wo_entrp">   -189.68347972 </i>
    <i name="e_0_energy">   -189.68347972 </i>
   </energy>
  </scstep>
  <scstep>
   <time name="total">    1.09    1.09</time>
   <energy>
    <i name="e_fr_energy">   -189.68343949 </i>
    <i name="e_wo_entrp">   -189.68343949 </i>
    <i name="e_0_energy">   -189.68343949 </i>
   </energy>
  </scstep>
  <scstep>
   <time name="total">    1.84    1.85</time>
   <energy>
    <i name="e_fr_energy">     -1.05746697 </i>
    <i name="e_wo_entrp">     -1.05746697 </i>
    <i name="e_0_energy">     -1.05746697 </i>
   </energy>
  </scstep>
  <scstep>
   <time name="total">    1.92    1.92</time>
   <energy>
    <i name="e_fr_energy">     -1.16979194 </i>
    <i name="e_wo_entrp">     -1.16979194 </i>
    <i name="e_0_energy">     -1.16979194 </i>
   </energy>
  </scstep>
  <scstep>
   <time name="total">    1.92    1.92</time>
   <energy>
    <i name="e_fr_energy">     -1.17253758 </i>
    <i name="e_wo_entrp">     -1.17253758 </i>
    <i name="e_0_energy">     -1.17253758 </i>
   </energy>
  </scstep>
  <scstep>
   <time name="total">    1.92    1.92</time>
   <energy>
    <i name="e_fr_energy">     -1.17285487 </i>
    <i name="e_wo_entrp">     -1.17285487 </i>
    <i name="e_0_energy">     -1.17285487 </i>
   </energy>
  </scstep>
  <scstep>
   <time name="total">    1.92    1.92</time>
   <energy>
    <i name="e_fr_energy">     -1.17289523 </i>
    <i name="e_wo_entrp">     -1.17289523 </i>
    <i name="e_0_energy">     -1.17289523 </i>
   </energy>
  </scstep>
  <scstep>
   <time name="total">    1.92    1.92</time>
   <energy>
    <i name="e_fr_energy">     -1.17289935 </i>
    <i name="e_wo_entrp">     -1.17289935 </i>
    <i name="e_0_energy">     -1.17289935 </i>
   </energy>
  </scstep>
  <scstep>
   <time name="total">    1.91    1.91</time>
   <energy>
    <i name="e_fr_energy">     -1.17289974 </i>
    <i name="e_wo_entrp">     -1.17289974 </i>
    <i name="e_0_energy">     -1.17289974 </i>
   </energy>
  </scstep>
  <scstep>
   <time name="total">    2.85    2.85</time>
   <energy>
    <i name="e_fr_energy">     -1.17289978 </i>
    <i name="e_wo_entrp">     -1.17289978 </i>
    <i name="e_0_energy">     -1.17289978 </i>
   </energy>
  </scstep>
  <scstep>
   <time name="total">    1.91    1.91</time>
   <energy>
    <i name="e_fr_energy">     -1.17289979 </i>
    <i name="e_wo_entrp">     -1.17289979 </i>
    <i name="e_0_energy">     -1.17289979 </i>
   </energy>
  </scstep>
  <scstep>
   <time name="total">    1.86    1.87</time>
   <energy>
    <i name="e_fr_energy">     -0.96346110 </i>
    <i name="e_wo_entrp">     -0.96346110 </i>
    <i name="e_0_energy">     -0.96346110 </i>
   </energy>
  </scstep>
  <scstep>
   <time name="total">    1.91    1.91</time>
   <energy>
    <i name="e_fr_energy">     -1.06586655 </i>
    <i name="e_wo_entrp">     -1.06586655 </i>
    <i name="e_0_energy">     -1.06586655 </i>
   </energy>
  </scstep>
  <scstep>
   <time name="total">    1.91    1.91</time>
   <energy>
    <i name="e_fr_energy">     -1.06852535 </i>
    <i name="e_wo_entrp">     -1.06852535 </i>
    <i name="e_0_energy">     -1.06852535 </i>
   </energy>
  </scstep>
  <scstep>
   <time name="total">    1.91    1.91</time>
   <energy>
    <i name="e_fr_energy">     -1.06885781 </i>
    <i name="e_wo_entrp">     -1.06885781 </i>
    <i name="e_0_energy">     -1.06885781 </i>
   </energy>
  </scstep>
  <scstep>
   <time name="total">    1.91    1.94</time>
   <energy>
    <i name="e_fr_energy">     -1.06890012 </i>
    <i name="e_wo_entrp">     -1.06890012 </i>
    <i name="e_0_energy">     -1.06890012 </i>
   </energy>
  </scstep>
  <scstep>
   <time name="total">    1.92    1.92</time>
   <energy>
    <i name="e_fr_energy">     -1.06890430 </i>
    <i name="e_wo_entrp">     -1.06890430 </i>
    <i name="e_0_energy">     -1.06890430 </i>
   </energy>
  </scstep>
  <scstep>
   <time name="total">    1.91    1.91</time>
   <energy>
    <i name="e_fr_energy">     -1.06890469 </i>
    <i name="e_wo_entrp">     -1.06890469 </i>
    <i name="e_0_energy">     -1.06890469 </i>
   </energy>
  </scstep>
  <scstep>
   <time name="total">    1.91    1.91</time>
   <energy>
    <i name="e_fr_energy">     -1.06890473 </i>
    <i name="e_wo_entrp">     -1.06890473 </i>
    <i name="e_0_energy">     -1.06890473 </i>
   </energy>
  </scstep>
  <scstep>
   <time name="total">    1.91    1.91</time>
   <energy>
    <i name="e_fr_energy">     -1.06890473 </i>
    <i name="e_wo_entrp">     -1.06890473 </i>
    <i name="e_0_energy">     -1.06890473 </i>
   </energy>
  </scstep>
  <scstep>
   <time name="total">    1.86    1.86</time>
   <energy>
    <i name="e_fr_energy">     -1.17966928 </i>
    <i name="e_wo_entrp">     -1.17966928 </i>
    <i name="e_0_energy">     -1.17966928 </i>
   </energy>
  </scstep>
  <scstep>
   <time name="total">    1.92    1.92</time>
   <energy>
    <i name="e_fr_energy">     -1.31196061 </i>
    <i name="e_wo_entrp">     -1.31196061 </i>
    <i name="e_0_energy">     -1.31196061 </i>
   </energy>
  </scstep>
  <scstep>
   <time name="total">    1.91    1.91</time>
   <energy>
    <i name="e_fr_energy">     -1.31581187 </i>
    <i name="e_wo_entrp">     -1.31581187 </i>
    <i name="e_0_energy">     -1.31581187 </i>
   </energy>
  </scstep>
  <scstep>
   <time name="total">    1.93    1.93</time>
   <energy>
    <i name="e_fr_energy">     -1.31624010 </i>
    <i name="e_wo_entrp">     -1.31624010 </i>
    <i name="e_0_energy">     -1.31624010 </i>
   </energy>
  </scstep>
  <scstep>
   <time name="total">    2.21    2.21</time>
   <energy>
    <i name="e_fr_energy">     -1.31628580 </i>
    <i name="e_wo_entrp">     -1.31628580 </i>
    <i name="e_0_energy">     -1.31628580 </i>
   </energy>
  </scstep>
  <scstep>
   <time name="total">    1.91    1.91</time>
   <energy>
    <i name="e_fr_energy">     -1.31628973 </i>
    <i name="e_wo_entrp">     -1.31628973 </i>
    <i name="e_0_energy">     -1.31628973 </i>
   </energy>
  </scstep>
  <scstep>
   <time name="total">    1.91    1.91</time>
   <energy>
    <i name="e_fr_energy">     -1.31629006 </i>
    <i name="e_wo_entrp">     -1.31629006 </i>
    <i name="e_0_energy">     -1.31629006 </i>
   </energy>
  </scstep>
  <scstep>
   <time name="total">    1.91    1.91</time>
   <energy>
    <i name="e_fr_energy">     -1.31629010 </i>
    <i name="e_wo_entrp">     -1.31629010 </i>
    <i name="e_0_energy">     -1.31629010 </i>
   </energy>
  </scstep>
  <scstep>
   <time name="total">    1.91    1.91</time>
   <energy>
    <i name="e_fr_energy">     -1.31629010 </i>
    <i name="e_wo_entrp">     -1.31629010 </i>
    <i name="e_0_energy">     -1.31629010 </i>
   </energy>
  </scstep>
  <varray name="epsilon_rpa" >
   <v>       7.81678767       0.00000000       0.00000000 </v>
   <v>       0.00000000       7.81678767       0.00000000 </v>
   <v>       0.00000000       0.00000000       9.00504200 </v>
  </varray>
  <kpoints>
   <generation param="Gamma">
    <v type="int" name="divisions">       9        9       14 </v>
    <v name="usershift">      0.00000000       0.00000000       0.00000000 </v>
    <v name="genvec1">      0.11111111      -0.00000000       0.00000000 </v>
    <v name="genvec2">      0.00000000       0.11111111       0.00000000 </v>
    <v name="genvec3">      0.00000000       0.00000000       0.07142857 </v>
    <v name="shift">      0.00000000       0.00000000       0.00000000 </v>
   </generation>
   <varray name="kpointlist" >
    <v>       0.00000000       0.00000000       0.00000000 </v>
    <v>       0.11111111       0.00000000       0.00000000 </v>
    <v>       0.22222222       0.00000000       0.00000000 </v>
    <v>       0.33333333       0.00000000       0.00000000 </v>
    <v>       0.44444444       0.00000000       0.00000000 </v>
    <v>       0.00000000       0.11111111       0.00000000 </v>
    <v>       0.11111111       0.11111111       0.00000000 </v>
    <v>       0.22222222       0.11111111       0.00000000 </v>
    <v>       0.33333333       0.11111111       0.00000000 </v>
    <v>       0.44444444       0.11111111       0.00000000 </v>
    <v>       0.00000000       0.22222222       0.00000000 </v>
    <v>       0.11111111       0.22222222       0.00000000 </v>
    <v>       0.22222222       0.22222222       0.00000000 </v>
    <v>       0.33333333       0.22222222       0.00000000 </v>
    <v>       0.44444444       0.22222222       0.00000000 </v>
    <v>       0.00000000       0.33333333       0.00000000 </v>
    <v>       0.11111111       0.33333333       0.00000000 </v>
    <v>       0.22222222       0.33333333       0.00000000 </v>
    <v>       0.33333333       0.33333333       0.00000000 </v>
    <v>       0.44444444       0.33333333       0.00000000 </v>
    <v>       0.00000000       0.44444444       0.00000000 </v>
    <v>       0.11111111       0.44444444       0.00000000 </v>
    <v>       0.22222222       0.44444444       0.00000000 </v>
    <v>       0.33333333       0.44444444       0.00000000 </v>
    <v>       0.44444444       0.44444444       0.00000000 </v>
    <v>       0.00000000       0.00000000       0.07142857 </v>
    <v>       0.11111111       0.00000000       0.07142857 </v>
    <v>       0.22222222       0.00000000       0.07142857 </v>
    <v>       0.33333333       0.00000000       0.07142857 </v>
    <v>       0.44444444       0.00000000       0.07142857 </v>
    <v>       0.00000000       0.11111111       0.07142857 </v>
    <v>       0.11111111       0.11111111       0.07142857 </v>
    <v>       0.22222222       0.11111111       0.07142857 </v>
    <v>       0.33333333       0.11111111       0.07142857 </v>
    <v>       0.44444444       0.11111111       0.07142857 </v>
    <v>       0.00000000       0.22222222       0.07142857 </v>
    <v>       0.11111111       0.22222222       0.07142857 </v>
    <v>       0.22222222       0.22222222       0.07142857 </v>
    <v>       0.33333333       0.22222222       0.07142857 </v>
    <v>       0.44444444       0.22222222       0.07142857 </v>
    <v>       0.00000000       0.33333333       0.07142857 </v>
    <v>       0.11111111       0.33333333       0.07142857 </v>
    <v>       0.22222222       0.33333333       0.07142857 </v>
    <v>       0.33333333       0.33333333       0.07142857 </v>
    <v>       0.44444444       0.33333333       0.07142857 </v>
    <v>       0.00000000       0.44444444       0.07142857 </v>
    <v>       0.11111111       0.44444444       0.07142857 </v>
    <v>       0.22222222       0.44444444       0.07142857 </v>
    <v>       0.33333333       0.44444444       0.07142857 </v>
    <v>       0.44444444       0.44444444       0.07142857 </v>
    <v>       0.00000000       0.00000000       0.14285714 </v>
    <v>       0.11111111       0.00000000       0.14285714 </v>
    <v>       0.22222222       0.00000000       0.14285714 </v>
    <v>       0.33333333       0.00000000       0.14285714 </v>
    <v>       0.44444444       0.00000000       0.14285714 </v>
    <v>       0.00000000       0.11111111       0.14285714 </v>
    <v>       0.11111111       0.11111111       0.14285714 </v>
    <v>       0.22222222       0.11111111       0.14285714 </v>
    <v>       0.33333333       0.11111111       0.14285714 </v>
    <v>       0.44444444       0.11111111       0.14285714 </v>
    <v>       0.00000000       0.22222222       0.14285714 </v>
    <v>       0.11111111       0.22222222       0.14285714 </v>
    <v>       0.22222222       0.22222222       0.14285714 </v>
    <v>       0.33333333       0.22222222       0.14285714 </v>
    <v>       0.44444444       0.22222222       0.14285714 </v>
    <v>       0.00000000       0.33333333       0.14285714 </v>
    <v>       0.11111111       0.33333333       0.14285714 </v>
    <v>       0.22222222       0.33333333       0.14285714 </v>
    <v>       0.33333333       0.33333333       0.14285714 </v>
    <v>       0.44444444       0.33333333       0.14285714 </v>
    <v>       0.00000000       0.44444444       0.14285714 </v>
    <v>       0.11111111       0.44444444       0.14285714 </v>
    <v>       0.22222222       0.44444444       0.14285714 </v>
    <v>       0.33333333       0.44444444       0.14285714 </v>
    <v>       0.44444444       0.44444444       0.14285714 </v>
    <v>       0.00000000       0.00000000       0.21428571 </v>
    <v>       0.11111111       0.00000000       0.21428571 </v>
    <v>       0.22222222       0.00000000       0.21428571 </v>
    <v>       0.33333333       0.00000000       0.21428571 </v>
    <v>       0.44444444       0.00000000       0.21428571 </v>
    <v>       0.00000000       0.11111111       0.21428571 </v>
    <v>       0.11111111       0.11111111       0.21428571 </v>
    <v>       0.22222222       0.11111111       0.21428571 </v>
    <v>       0.33333333       0.11111111       0.21428571 </v>
    <v>       0.44444444       0.11111111       0.21428571 </v>
    <v>       0.00000000       0.22222222       0.21428571 </v>
    <v>       0.11111111       0.22222222       0.21428571 </v>
    <v>       0.22222222       0.22222222       0.21428571 </v>
    <v>       0.33333333       0.22222222       0.21428571 </v>
    <v>       0.44444444       0.22222222       0.21428571 </v>
    <v>       0.00000000       0.33333333       0.21428571 </v>
    <v>       0.11111111       0.33333333       0.21428571 </v>
    <v>       0.22222222       0.33333333       0.21428571 </v>
    <v>       0.33333333       0.33333333       0.21428571 </v>
    <v>       0.44444444       0.33333333       0.21428571 </v>
    <v>       0.00000000       0.44444444       0.21428571 </v>
    <v>       0.11111111       0.44444444       0.21428571 </v>
    <v>       0.22222222       0.44444444       0.21428571 </v>
    <v>       0.33333333       0.44444444       0.21428571 </v>
    <v>       0.44444444       0.44444444       0.21428571 </v>
    <v>       0.00000000       0.00000000       0.28571429 </v>
    <v>       0.11111111       0.00000000       0.28571429 </v>
    <v>       0.22222222       0.00000000       0.28571429 </v>
    <v>       0.33333333       0.00000000       0.28571429 </v>
    <v>       0.44444444       0.00000000       0.28571429 </v>
    <v>       0.00000000       0.11111111       0.28571429 </v>
    <v>       0.11111111       0.11111111       0.28571429 </v>
    <v>       0.22222222       0.11111111       0.28571429 </v>
    <v>       0.33333333       0.11111111       0.28571429 </v>
    <v>       0.44444444       0.11111111       0.28571429 </v>
    <v>       0.00000000       0.22222222       0.28571429 </v>
    <v>       0.11111111       0.22222222       0.28571429 </v>
    <v>       0.22222222       0.22222222       0.28571429 </v>
    <v>       0.33333333       0.22222222       0.28571429 </v>
    <v>       0.44444444       0.22222222       0.28571429 </v>
    <v>       0.00000000       0.33333333       0.28571429 </v>
    <v>       0.11111111       0.33333333       0.28571429 </v>
    <v>       0.22222222       0.33333333       0.28571429 </v>
    <v>       0.33333333       0.33333333       0.28571429 </v>
    <v>       0.44444444       0.33333333       0.28571429 </v>
    <v>       0.00000000       0.44444444       0.28571429 </v>
    <v>       0.11111111       0.44444444       0.28571429 </v>
    <v>       0.22222222       0.44444444       0.28571429 </v>
    <v>       0.33333333       0.44444444       0.28571429 </v>
    <v>       0.44444444       0.44444444       0.28571429 </v>
    <v>       0.00000000       0.00000000       0.35714286 </v>
    <v>       0.11111111       0.00000000       0.35714286 </v>
    <v>       0.22222222      -0.00000000       0.35714286 </v>
    <v>       0.33333333      -0.00000000       0.35714286 </v>
    <v>       0.44444444       0.00000000       0.35714286 </v>
    <v>       0.00000000       0.11111111       0.35714286 </v>
    <v>       0.11111111       0.11111111       0.35714286 </v>
    <v>       0.22222222       0.11111111       0.35714286 </v>
    <v>       0.33333333       0.11111111       0.35714286 </v>
    <v>       0.44444444       0.11111111       0.35714286 </v>
    <v>       0.00000000       0.22222222       0.35714286 </v>
    <v>       0.11111111       0.22222222       0.35714286 </v>
    <v>       0.22222222       0.22222222       0.35714286 </v>
    <v>       0.33333333       0.22222222       0.35714286 </v>
    <v>       0.44444444       0.22222222       0.35714286 </v>
    <v>       0.00000000       0.33333333       0.35714286 </v>
    <v>       0.11111111       0.33333333       0.35714286 </v>
    <v>       0.22222222       0.33333333       0.35714286 </v>
    <v>       0.33333333       0.33333333       0.35714286 </v>
    <v>       0.44444444       0.33333333       0.35714286 </v>
    <v>       0.00000000       0.44444444       0.35714286 </v>
    <v>       0.11111111       0.44444444       0.35714286 </v>
    <v>       0.22222222       0.44444444       0.35714286 </v>
    <v>       0.33333333       0.44444444       0.35714286 </v>
    <v>       0.44444444       0.44444444       0.35714286 </v>
    <v>       0.00000000       0.00000000       0.42857143 </v>
    <v>       0.11111111       0.00000000       0.42857143 </v>
    <v>       0.22222222       0.00000000       0.42857143 </v>
    <v>       0.33333333       0.00000000       0.42857143 </v>
    <v>       0.44444444       0.00000000       0.42857143 </v>
    <v>       0.00000000       0.11111111       0.42857143 </v>
    <v>       0.11111111       0.11111111       0.42857143 </v>
    <v>       0.22222222       0.11111111       0.42857143 </v>
    <v>       0.33333333       0.11111111       0.42857143 </v>
    <v>       0.44444444       0.11111111       0.42857143 </v>
    <v>       0.00000000       0.22222222       0.42857143 </v>
    <v>       0.11111111       0.22222222       0.42857143 </v>
    <v>       0.22222222       0.22222222       0.42857143 </v>
    <v>       0.33333333       0.22222222       0.42857143 </v>
    <v>       0.44444444       0.22222222       0.42857143 </v>
    <v>       0.00000000       0.33333333       0.42857143 </v>
    <v>       0.11111111       0.33333333       0.42857143 </v>
    <v>       0.22222222       0.33333333       0.42857143 </v>
    <v>       0.33333333       0.33333333       0.42857143 </v>
    <v>       0.44444444       0.33333333       0.42857143 </v>
    <v>       0.00000000       0.44444444       0.42857143 </v>
    <v>       0.11111111       0.44444444       0.42857143 </v>
    <v>       0.22222222       0.44444444       0.42857143 </v>
    <v>       0.33333333       0.44444444       0.42857143 </v>
    <v>       0.44444444       0.44444444       0.42857143 </v>
    <v>       0.00000000       0.00000000       0.50000000 </v>
    <v>       0.11111111       0.00000000       0.50000000 </v>
    <v>       0.22222222       0.00000000       0.50000000 </v>
    <v>       0.33333333       0.00000000       0.50000000 </v>
    <v>       0.44444444       0.00000000       0.50000000 </v>
    <v>       0.00000000       0.11111111       0.50000000 </v>
    <v>       0.11111111       0.11111111       0.50000000 </v>
    <v>       0.22222222       0.11111111       0.50000000 </v>
    <v>       0.33333333       0.11111111       0.50000000 </v>
    <v>       0.44444444       0.11111111       0.50000000 </v>
    <v>       0.00000000       0.22222222       0.50000000 </v>
    <v>       0.11111111       0.22222222       0.50000000 </v>
    <v>       0.22222222       0.22222222       0.50000000 </v>
    <v>       0.33333333       0.22222222       0.50000000 </v>
    <v>       0.44444444       0.22222222       0.50000000 </v>
    <v>       0.00000000       0.33333333       0.50000000 </v>
    <v>       0.11111111       0.33333333       0.50000000 </v>
    <v>       0.22222222       0.33333333       0.50000000 </v>
    <v>       0.33333333       0.33333333       0.50000000 </v>
    <v>       0.44444444       0.33333333       0.50000000 </v>
    <v>       0.00000000       0.44444444       0.50000000 </v>
    <v>       0.11111111       0.44444444       0.50000000 </v>
    <v>       0.22222222       0.44444444       0.50000000 </v>
    <v>       0.33333333       0.44444444       0.50000000 </v>
    <v>       0.44444444       0.44444444       0.50000000 </v>
   </varray>
   <varray name="weights" >
    <v>       0.00088183 </v>
    <v>       0.00176367 </v>
    <v>       0.00176367 </v>
    <v>       0.00176367 </v>
    <v>       0.00176367 </v>
    <v>       0.00176367 </v>
    <v>       0.00352734 </v>
    <v>       0.00352734 </v>
    <v>       0.00352734 </v>
    <v>       0.00352734 </v>
    <v>       0.00176367 </v>
    <v>       0.00352734 </v>
    <v>       0.00352734 </v>
    <v>       0.00352734 </v>
    <v>       0.00352734 </v>
    <v>       0.00176367 </v>
    <v>       0.00352734 </v>
    <v>       0.00352734 </v>
    <v>       0.00352734 </v>
    <v>       0.00352734 </v>
    <v>       0.00176367 </v>
    <v>       0.00352734 </v>
    <v>       0.00352734 </v>
    <v>       0.00352734 </v>
    <v>       0.00352734 </v>
    <v>       0.00176367 </v>
    <v>       0.00352734 </v>
    <v>       0.00352734 </v>
    <v>       0.00352734 </v>
    <v>       0.00352734 </v>
    <v>       0.00352734 </v>
    <v>       0.00705467 </v>
    <v>       0.00705467 </v>
    <v>       0.00705467 </v>
    <v>       0.00705467 </v>
    <v>       0.00352734 </v>
    <v>       0.00705467 </v>
    <v>       0.00705467 </v>
    <v>       0.00705467 </v>
    <v>       0.00705467 </v>
    <v>       0.00352734 </v>
    <v>       0.00705467 </v>
    <v>       0.00705467 </v>
    <v>       0.00705467 </v>
    <v>       0.00705467 </v>
    <v>       0.00352734 </v>
    <v>       0.00705467 </v>
    <v>       0.00705467 </v>
    <v>       0.00705467 </v>
    <v>       0.00705467 </v>
    <v>       0.00176367 </v>
    <v>       0.00352734 </v>
    <v>       0.00352734 </v>
    <v>       0.00352734 </v>
    <v>       0.00352734 </v>
    <v>       0.00352734 </v>
    <v>       0.00705467 </v>
    <v>       0.00705467 </v>
    <v>       0.00705467 </v>
    <v>       0.00705467 </v>
    <v>       0.00352734 </v>
    <v>       0.00705467 </v>
    <v>       0.00705467 </v>
    <v>       0.00705467 </v>
    <v>       0.00705467 </v>
    <v>       0.00352734 </v>
    <v>       0.00705467 </v>
    <v>       0.00705467 </v>
    <v>       0.00705467 </v>
    <v>       0.00705467 </v>
    <v>       0.00352734 </v>
    <v>       0.00705467 </v>
    <v>       0.00705467 </v>
    <v>       0.00705467 </v>
    <v>       0.00705467 </v>
    <v>       0.00176367 </v>
    <v>       0.00352734 </v>
    <v>       0.00352734 </v>
    <v>       0.00352734 </v>
    <v>       0.00352734 </v>
    <v>       0.00352734 </v>
    <v>       0.00705467 </v>
    <v>       0.00705467 </v>
    <v>       0.00705467 </v>
    <v>       0.00705467 </v>
    <v>       0.00352734 </v>
    <v>       0.00705467 </v>
    <v>       0.00705467 </v>
    <v>       0.00705467 </v>
    <v>       0.00705467 </v>
    <v>       0.00352734 </v>
    <v>       0.00705467 </v>
    <v>       0.00705467 </v>
    <v>       0.00705467 </v>
    <v>       0.00705467 </v>
    <v>       0.00352734 </v>
    <v>       0.00705467 </v>
    <v>       0.00705467 </v>
    <v>       0.00705467 </v>
    <v>       0.00705467 </v>
    <v>       0.00176367 </v>
    <v>       0.00352734 </v>
    <v>       0.00352734 </v>
    <v>       0.00352734 </v>
    <v>       0.00352734 </v>
    <v>       0.00352734 </v>
    <v>       0.00705467 </v>
    <v>       0.00705467 </v>
    <v>       0.00705467 </v>
    <v>       0.00705467 </v>
    <v>       0.00352734 </v>
    <v>       0.00705467 </v>
    <v>       0.00705467 </v>
    <v>       0.00705467 </v>
    <v>       0.00705467 </v>
    <v>       0.00352734 </v>
    <v>       0.00705467 </v>
    <v>       0.00705467 </v>
    <v>       0.00705467 </v>
    <v>       0.00705467 </v>
    <v>       0.00352734 </v>
    <v>       0.00705467 </v>
    <v>       0.00705467 </v>
    <v>       0.00705467 </v>
    <v>       0.00705467 </v>
    <v>       0.00176367 </v>
    <v>       0.00352734 </v>
    <v>       0.00352734 </v>
    <v>       0.00352734 </v>
    <v>       0.00352734 </v>
    <v>       0.00352734 </v>
    <v>       0.00705467 </v>
    <v>       0.00705467 </v>
    <v>       0.00705467 </v>
    <v>       0.00705467 </v>
    <v>       0.00352734 </v>
    <v>       0.00705467 </v>
    <v>       0.00705467 </v>
    <v>       0.00705467 </v>
    <v>       0.00705467 </v>
    <v>       0.00352734 </v>
    <v>       0.00705467 </v>
    <v>       0.00705467 </v>
    <v>       0.00705467 </v>
    <v>       0.00705467 </v>
    <v>       0.00352734 </v>
    <v>       0.00705467 </v>
    <v>       0.00705467 </v>
    <v>       0.00705467 </v>
    <v>       0.00705467 </v>
    <v>       0.00176367 </v>
    <v>       0.00352734 </v>
    <v>       0.00352734 </v>
    <v>       0.00352734 </v>
    <v>       0.00352734 </v>
    <v>       0.00352734 </v>
    <v>       0.00705467 </v>
    <v>       0.00705467 </v>
    <v>       0.00705467 </v>
    <v>       0.00705467 </v>
    <v>       0.00352734 </v>
    <v>       0.00705467 </v>
    <v>       0.00705467 </v>
    <v>       0.00705467 </v>
    <v>       0.00705467 </v>
    <v>       0.00352734 </v>
    <v>       0.00705467 </v>
    <v>       0.00705467 </v>
    <v>       0.00705467 </v>
    <v>       0.00705467 </v>
    <v>       0.00352734 </v>
    <v>       0.00705467 </v>
    <v>       0.00705467 </v>
    <v>       0.00705467 </v>
    <v>       0.00705467 </v>
    <v>       0.00088183 </v>
    <v>       0.00176367 </v>
    <v>       0.00176367 </v>
    <v>       0.00176367 </v>
    <v>       0.00176367 </v>
    <v>       0.00176367 </v>
    <v>       0.00352734 </v>
    <v>       0.00352734 </v>
    <v>       0.00352734 </v>
    <v>       0.00352734 </v>
    <v>       0.00176367 </v>
    <v>       0.00352734 </v>
    <v>       0.00352734 </v>
    <v>       0.00352734 </v>
    <v>       0.00352734 </v>
    <v>       0.00176367 </v>
    <v>       0.00352734 </v>
    <v>       0.00352734 </v>
    <v>       0.00352734 </v>
    <v>       0.00352734 </v>
    <v>       0.00176367 </v>
    <v>       0.00352734 </v>
    <v>       0.00352734 </v>
    <v>       0.00352734 </v>
    <v>       0.00352734 </v>
   </varray>
  </kpoints>
  <scstep>
   <time name="total">    3.06    3.05</time>
   <energy>
    <i name="e_fr_energy">     -1.01046403 </i>
    <i name="e_wo_entrp">     -1.01046403 </i>
    <i name="e_0_energy">     -1.01046403 </i>
   </energy>
  </scstep>
  <scstep>
   <time name="total">    3.28    3.28</time>
   <energy>
    <i name="e_fr_energy">     -1.11782882 </i>
    <i name="e_wo_entrp">     -1.11782882 </i>
    <i name="e_0_energy">     -1.11782882 </i>
   </energy>
  </scstep>
  <scstep>
   <time name="total">    3.28    3.28</time>
   <energy>
    <i name="e_fr_energy">     -1.09460953 </i>
    <i name="e_wo_entrp">     -1.09460953 </i>
    <i name="e_0_energy">     -1.09460953 </i>
   </energy>
  </scstep>
  <scstep>
   <time name="total">    3.28    3.28</time>
   <energy>
    <i name="e_fr_energy">     -1.09269183 </i>
    <i name="e_wo_entrp">     -1.09269183 </i>
    <i name="e_0_energy">     -1.09269183 </i>
   </energy>
  </scstep>
  <scstep>
   <time name="total">    3.28    3.28</time>
   <energy>
    <i name="e_fr_energy">     -1.10600626 </i>
    <i name="e_wo_entrp">     -1.10600626 </i>
    <i name="e_0_energy">     -1.10600626 </i>
   </energy>
  </scstep>
  <scstep>
   <time name="total">    3.30    3.33</time>
   <energy>
    <i name="e_fr_energy">     -1.10905308 </i>
    <i name="e_wo_entrp">     -1.10905308 </i>
    <i name="e_0_energy">     -1.10905308 </i>
   </energy>
  </scstep>
  <scstep>
   <time name="total">    3.42    3.42</time>
   <energy>
    <i name="e_fr_energy">     -1.10931264 </i>
    <i name="e_wo_entrp">     -1.10931264 </i>
    <i name="e_0_energy">     -1.10931264 </i>
   </energy>
  </scstep>
  <scstep>
   <time name="total">    3.29    3.29</time>
   <energy>
    <i name="e_fr_energy">     -1.10946519 </i>
    <i name="e_wo_entrp">     -1.10946519 </i>
    <i name="e_0_energy">     -1.10946519 </i>
   </energy>
  </scstep>
  <scstep>
   <time name="total">    3.30    3.29</time>
   <energy>
    <i name="e_fr_energy">     -1.10949082 </i>
    <i name="e_wo_entrp">     -1.10949082 </i>
    <i name="e_0_energy">     -1.10949082 </i>
   </energy>
  </scstep>
  <scstep>
   <time name="total">    3.30    3.30</time>
   <energy>
    <i name="e_fr_energy">     -1.10949125 </i>
    <i name="e_wo_entrp">     -1.10949125 </i>
    <i name="e_0_energy">     -1.10949125 </i>
   </energy>
  </scstep>
  <scstep>
   <time name="total">    3.29    3.29</time>
   <energy>
    <i name="e_fr_energy">     -1.10948980 </i>
    <i name="e_wo_entrp">     -1.10948980 </i>
    <i name="e_0_energy">     -1.10948980 </i>
   </energy>
  </scstep>
  <scstep>
   <time name="total">    3.29    3.29</time>
   <energy>
    <i name="e_fr_energy">     -1.10949088 </i>
    <i name="e_wo_entrp">     -1.10949088 </i>
    <i name="e_0_energy">     -1.10949088 </i>
   </energy>
  </scstep>
  <scstep>
   <time name="total">    3.28    3.28</time>
   <energy>
    <i name="e_fr_energy">     -1.10948928 </i>
    <i name="e_wo_entrp">     -1.10948928 </i>
    <i name="e_0_energy">     -1.10948928 </i>
   </energy>
  </scstep>
  <scstep>
   <time name="total">    3.28    3.28</time>
   <energy>
    <i name="e_fr_energy">     -1.10949091 </i>
    <i name="e_wo_entrp">     -1.10949091 </i>
    <i name="e_0_energy">     -1.10949091 </i>
   </energy>
  </scstep>
  <kpoints>
   <generation param="Gamma">
    <v type="int" name="divisions">       9        9       14 </v>
    <v name="usershift">      0.00000000       0.00000000       0.00000000 </v>
    <v name="genvec1">      0.11111111      -0.00000000       0.00000000 </v>
    <v name="genvec2">      0.00000000       0.11111111       0.00000000 </v>
    <v name="genvec3">      0.00000000       0.00000000       0.07142857 </v>
    <v name="shift">      0.00000000       0.00000000       0.00000000 </v>
   </generation>
   <varray name="kpointlist" >
    <v>       0.00000000       0.00000000       0.00000000 </v>
    <v>       0.11111111       0.00000000       0.00000000 </v>
    <v>       0.22222222       0.00000000       0.00000000 </v>
    <v>       0.33333333       0.00000000       0.00000000 </v>
    <v>       0.44444444       0.00000000       0.00000000 </v>
    <v>       0.00000000       0.11111111       0.00000000 </v>
    <v>       0.11111111       0.11111111       0.00000000 </v>
    <v>       0.22222222       0.11111111       0.00000000 </v>
    <v>       0.33333333       0.11111111       0.00000000 </v>
    <v>       0.44444444       0.11111111       0.00000000 </v>
    <v>       0.00000000       0.22222222       0.00000000 </v>
    <v>       0.11111111       0.22222222       0.00000000 </v>
    <v>       0.22222222       0.22222222       0.00000000 </v>
    <v>       0.33333333       0.22222222       0.00000000 </v>
    <v>       0.44444444       0.22222222       0.00000000 </v>
    <v>       0.00000000       0.33333333       0.00000000 </v>
    <v>       0.11111111       0.33333333       0.00000000 </v>
    <v>       0.22222222       0.33333333       0.00000000 </v>
    <v>       0.33333333       0.33333333       0.00000000 </v>
    <v>       0.44444444       0.33333333       0.00000000 </v>
    <v>       0.00000000       0.44444444       0.00000000 </v>
    <v>       0.11111111       0.44444444       0.00000000 </v>
    <v>       0.22222222       0.44444444       0.00000000 </v>
    <v>       0.33333333       0.44444444       0.00000000 </v>
    <v>       0.44444444       0.44444444       0.00000000 </v>
    <v>       0.00000000       0.00000000       0.07142857 </v>
    <v>       0.11111111       0.00000000       0.07142857 </v>
    <v>       0.22222222       0.00000000       0.07142857 </v>
    <v>       0.33333333       0.00000000       0.07142857 </v>
    <v>       0.44444444       0.00000000       0.07142857 </v>
    <v>       0.00000000       0.11111111       0.07142857 </v>
    <v>       0.11111111       0.11111111       0.07142857 </v>
    <v>       0.22222222       0.11111111       0.07142857 </v>
    <v>       0.33333333       0.11111111       0.07142857 </v>
[...]
       <r>   25.7420    0.0000 </r>
       <r>   27.5901    0.0000 </r>
       <r>   29.4155    0.0000 </r>
      </set>
      <set comment="kpoint 119">
       <r>  -50.8981    1.0000 </r>
       <r>  -50.8981    1.0000 </r>
       <r>  -28.0210    1.0000 </r>
       <r>  -28.0175    1.0000 </r>
       <r>  -27.5674    1.0000 </r>
       <r>  -27.5627    1.0000 </r>
       <r>  -27.5243    1.0000 </r>
       <r>  -27.5237    1.0000 </r>
       <r>  -11.7880    1.0000 </r>
       <r>  -11.6844    1.0000 </r>
       <r>  -11.2401    1.0000 </r>
       <r>  -11.1288    1.0000 </r>
       <r>   -0.2524    1.0000 </r>
       <r>   -0.0708    1.0000 </r>
       <r>    0.4909    1.0000 </r>
       <r>    0.5889    1.0000 </r>
       <r>    1.2329    1.0000 </r>
       <r>    1.5223    1.0000 </r>
       <r>    2.2719    1.0000 </r>
       <r>    2.3349    1.0000 </r>
       <r>    3.4809    1.0000 </r>
       <r>    3.5902    1.0000 </r>
       <r>    4.2045    1.0000 </r>
       <r>    4.2902    1.0000 </r>
       <r>    7.3268    0.0000 </r>
       <r>    7.6085    0.0000 </r>
       <r>    8.4281    0.0000 </r>
       <r>    8.4396    0.0000 </r>
       <r>    8.5428    0.0000 </r>
       <r>    8.8286    0.0000 </r>
       <r>   10.7758    0.0000 </r>
       <r>   11.1123    0.0000 </r>
       <r>   11.8815    0.0000 </r>
       <r>   12.2216    0.0000 </r>
       <r>   16.7124    0.0000 </r>
       <r>   16.9494    0.0000 </r>
       <r>   18.7965    0.0000 </r>
       <r>   19.3826    0.0000 </r>
       <r>   20.4112    0.0000 </r>
       <r>   20.8919    0.0000 </r>
       <r>   22.7366    0.0000 </r>
       <r>   22.8216    0.0000 </r>
       <r>   23.6451    0.0000 </r>
       <r>   23.9834    0.0000 </r>
       <r>   24.7570    0.0000 </r>
       <r>   25.2432    0.0000 </r>
       <r>   28.3931    0.0000 </r>
       <r>   29.1226    0.0000 </r>
      </set>
      <set comment="kpoint 120">
       <r>  -50.8980    1.0000 </r>
       <r>  -50.8980    1.0000 </r>
       <r>  -28.0166    1.0000 </r>
       <r>  -28.0152    1.0000 </r>
       <r>  -27.5696    1.0000 </r>
       <r>  -27.5677    1.0000 </r>
       <r>  -27.5248    1.0000 </r>
       <r>  -27.5245    1.0000 </r>
       <r>  -11.6927    1.0000 </r>
       <r>  -11.6369    1.0000 </r>
       <r>  -11.2863    1.0000 </r>
       <r>  -11.2275    1.0000 </r>
       <r>   -0.1241    1.0000 </r>
       <r>   -0.0059    1.0000 </r>
       <r>    0.3169    1.0000 </r>
       <r>    0.4127    1.0000 </r>
       <r>    1.3153    1.0000 </r>
       <r>    1.4165    1.0000 </r>
       <r>    2.2438    1.0000 </r>
       <r>    2.2731    1.0000 </r>
       <r>    3.6075    1.0000 </r>
       <r>    3.6452    1.0000 </r>
       <r>    4.3552    1.0000 </r>
       <r>    4.3881    1.0000 </r>
       <r>    7.5837    0.0000 </r>
       <r>    7.7644    0.0000 </r>
       <r>    8.3552    0.0000 </r>
       <r>    8.4455    0.0000 </r>
       <r>    8.4507    0.0000 </r>
       <r>    8.5464    0.0000 </r>
       <r>   11.0983    0.0000 </r>
       <r>   11.4510    0.0000 </r>
       <r>   11.5168    0.0000 </r>
       <r>   11.8714    0.0000 </r>
       <r>   16.5740    0.0000 </r>
       <r>   16.6583    0.0000 </r>
       <r>   19.1564    0.0000 </r>
       <r>   19.5645    0.0000 </r>
       <r>   19.9559    0.0000 </r>
       <r>   20.3334    0.0000 </r>
       <r>   22.7796    0.0000 </r>
       <r>   22.8140    0.0000 </r>
       <r>   24.1053    0.0000 </r>
       <r>   24.3062    0.0000 </r>
       <r>   24.7551    0.0000 </r>
       <r>   25.0075    0.0000 </r>
       <r>   28.8571    0.0000 </r>
       <r>   29.1803    0.0000 </r>
      </set>
     </set>
    </set>
   </array>
  </eigenvalues>
  <separator name="orbital magnetization" >
   <v name="MAGDIPOLOUT">      0.00000000      0.00000000      0.00000000</v>
  </separator>
  <dos>
   <i name="efermi">      5.16935353 </i>
   <total>
    <array>
     <dimension dim="1">gridpoints</dimension>
     <dimension dim="2">spin</dimension>
     <field>energy</field>
     <field>total</field>
     <field>integrated</field>
     <set>
      <set comment="spin 1">
       <r>   -55.0009     0.0000     0.0000 </r>
       <r>   -54.7048     0.0000     0.0000 </r>
       <r>   -54.4088     0.0000     0.0000 </r>
       <r>   -54.1128     0.0000     0.0000 </r>
       <r>   -53.8167     0.0000     0.0000 </r>
       <r>   -53.5207     0.0000     0.0000 </r>
       <r>   -53.2246     0.0000     0.0000 </r>
       <r>   -52.9286     0.0000     0.0000 </r>
       <r>   -52.6326     0.0000     0.0000 </r>
       <r>   -52.3365     0.0000     0.0000 </r>
       <r>   -52.0405     0.0000     0.0000 </r>
       <r>   -51.7444     0.0000     0.0000 </r>
       <r>   -51.4484     0.0000     0.0000 </r>
       <r>   -51.1524     0.0000     0.0000 </r>
       <r>   -50.8563     8.7337     4.0000 </r>
       <r>   -50.5603     0.0000     4.0000 </r>
       <r>   -50.2642     0.0000     4.0000 </r>
       <r>   -49.9682     0.0000     4.0000 </r>
       <r>   -49.6722     0.0000     4.0000 </r>
       <r>   -49.3761     0.0000     4.0000 </r>
       <r>   -49.0801     0.0000     4.0000 </r>
       <r>   -48.7840     0.0000     4.0000 </r>
       <r>   -48.4880     0.0000     4.0000 </r>
       <r>   -48.1920     0.0000     4.0000 </r>
       <r>   -47.8959     0.0000     4.0000 </r>
       <r>   -47.5999     0.0000     4.0000 </r>
       <r>   -47.3038     0.0000     4.0000 </r>
       <r>   -47.0078     0.0000     4.0000 </r>
       <r>   -46.7118     0.0000     4.0000 </r>
       <r>   -46.4157     0.0000     4.0000 </r>
       <r>   -46.1197     0.0000     4.0000 </r>
       <r>   -45.8236     0.0000     4.0000 </r>
       <r>   -45.5276     0.0000     4.0000 </r>
       <r>   -45.2316     0.0000     4.0000 </r>
       <r>   -44.9355     0.0000     4.0000 </r>
       <r>   -44.6395     0.0000     4.0000 </r>
       <r>   -44.3434     0.0000     4.0000 </r>
       <r>   -44.0474     0.0000     4.0000 </r>
       <r>   -43.7513     0.0000     4.0000 </r>
       <r>   -43.4553     0.0000     4.0000 </r>
       <r>   -43.1593     0.0000     4.0000 </r>
       <r>   -42.8632     0.0000     4.0000 </r>
       <r>   -42.5672     0.0000     4.0000 </r>
       <r>   -42.2711     0.0000     4.0000 </r>
       <r>   -41.9751     0.0000     4.0000 </r>
       <r>   -41.6791     0.0000     4.0000 </r>
       <r>   -41.3830     0.0000     4.0000 </r>
       <r>   -41.0870     0.0000     4.0000 </r>
       <r>   -40.7909     0.0000     4.0000 </r>
       <r>   -40.4949     0.0000     4.0000 </r>
       <r>   -40.1989     0.0000     4.0000 </r>
       <r>   -39.9028     0.0000     4.0000 </r>
       <r>   -39.6068     0.0000     4.0000 </r>
       <r>   -39.3107     0.0000     4.0000 </r>
       <r>   -39.0147     0.0000     4.0000 </r>
       <r>   -38.7187     0.0000     4.0000 </r>
       <r>   -38.4226     0.0000     4.0000 </r>
       <r>   -38.1266     0.0000     4.0000 </r>
       <r>   -37.8305     0.0000     4.0000 </r>
       <r>   -37.5345     0.0000     4.0000 </r>
       <r>   -37.2385     0.0000     4.0000 </r>
       <r>   -36.9424     0.0000     4.0000 </r>
       <r>   -36.6464     0.0000     4.0000 </r>
       <r>   -36.3503     0.0000     4.0000 </r>
       <r>   -36.0543     0.0000     4.0000 </r>
       <r>   -35.7583     0.0000     4.0000 </r>
       <r>   -35.4622     0.0000     4.0000 </r>
       <r>   -35.1662     0.0000     4.0000 </r>
       <r>   -34.8701     0.0000     4.0000 </r>
       <r>   -34.5741     0.0000     4.0000 </r>
       <r>   -34.2781     0.0000     4.0000 </r>
       <r>   -33.9820     0.0000     4.0000 </r>
       <r>   -33.6860     0.0000     4.0000 </r>
       <r>   -33.3899     0.0000     4.0000 </r>
       <r>   -33.0939     0.0000     4.0000 </r>
       <r>   -32.7978     0.0000     4.0000 </r>
       <r>   -32.5018     0.0000     4.0000 </r>
       <r>   -32.2058     0.0000     4.0000 </r>
       <r>   -31.9097     0.0000     4.0000 </r>
       <r>   -31.6137     0.0000     4.0000 </r>
       <r>   -31.3176     0.0000     4.0000 </r>
       <r>   -31.0216     0.0000     4.0000 </r>
       <r>   -30.7256     0.0000     4.0000 </r>
       <r>   -30.4295     0.0000     4.0000 </r>
       <r>   -30.1335     0.0000     4.0000 </r>
       <r>   -29.8374     0.0000     4.0000 </r>
       <r>   -29.5414     0.0000     4.0000 </r>
       <r>   -29.2454     0.0000     4.0000 </r>
       <r>   -28.9493     0.0000     4.0000 </r>
       <r>   -28.6533     0.0000     4.0000 </r>
       <r>   -28.3572     0.0000     4.0000 </r>
       <r>   -28.0612     0.0000     4.0000 </r>
       <r>   -27.7652     1.9318     6.0005 </r>
       <r>   -27.4691    13.0006    15.7605 </r>
       <r>   -27.1731     0.0000    16.0000 </r>
       <r>   -26.8770     0.0000    16.0000 </r>
       <r>   -26.5810     0.0000    16.0000 </r>
       <r>   -26.2850     0.0000    16.0000 </r>
       <r>   -25.9889     0.0000    16.0000 </r>
       <r>   -25.6929     0.0000    16.0000 </r>
       <r>   -25.3968     0.0000    16.0000 </r>
       <r>   -25.1008     0.0000    16.0000 </r>
       <r>   -24.8048     0.0000    16.0000 </r>
       <r>   -24.5087     0.0000    16.0000 </r>
       <r>   -24.2127     0.0000    16.0000 </r>
       <r>   -23.9166     0.0000    16.0000 </r>
       <r>   -23.6206     0.0000    16.0000 </r>
       <r>   -23.3245     0.0000    16.0000 </r>
       <r>   -23.0285     0.0000    16.0000 </r>
       <r>   -22.7325     0.0000    16.0000 </r>
       <r>   -22.4364     0.0000    16.0000 </r>
       <r>   -22.1404     0.0000    16.0000 </r>
       <r>   -21.8443     0.0000    16.0000 </r>
       <r>   -21.5483     0.0000    16.0000 </r>
       <r>   -21.2523     0.0000    16.0000 </r>
       <r>   -20.9562     0.0000    16.0000 </r>
       <r>   -20.6602     0.0000    16.0000 </r>
       <r>   -20.3641     0.0000    16.0000 </r>
       <r>   -20.0681     0.0000    16.0000 </r>
       <r>   -19.7721     0.0000    16.0000 </r>
       <r>   -19.4760     0.0000    16.0000 </r>
       <r>   -19.1800     0.0000    16.0000 </r>
       <r>   -18.8839     0.0000    16.0000 </r>
       <r>   -18.5879     0.0000    16.0000 </r>
       <r>   -18.2919     0.0000    16.0000 </r>
       <r>   -17.9958     0.0000    16.0000 </r>
       <r>   -17.6998     0.0000    16.0000 </r>
       <r>   -17.4037     0.0000    16.0000 </r>
       <r>   -17.1077     0.0000    16.0000 </r>
       <r>   -16.8117     0.0000    16.0000 </r>
       <r>   -16.5156     0.0000    16.0000 </r>
       <r>   -16.2196     0.0000    16.0000 </r>
       <r>   -15.9235     0.0000    16.0000 </r>
       <r>   -15.6275     0.0000    16.0000 </r>
       <r>   -15.3315     0.0000    16.0000 </r>
       <r>   -15.0354     0.0000    16.0000 </r>
       <r>   -14.7394     0.0000    16.0000 </r>
       <r>   -14.4433     0.0000    16.0000 </r>
       <r>   -14.1473     0.0000    16.0000 </r>
       <r>   -13.8513     0.0000    16.0000 </r>
       <r>   -13.5552     0.0000    16.0000 </r>
       <r>   -13.2592     0.0000    16.0000 </r>
       <r>   -12.9631     0.0939    16.0296 </r>
       <r>   -12.6671     0.0839    16.1677 </r>
       <r>   -12.3710     0.4985    16.5268 </r>
       <r>   -12.0750     0.4303    17.1098 </r>
       <r>   -11.7790     1.6094    18.5840 </r>
       <r>   -11.4829     0.9169    19.9646 </r>
       <r>   -11.1869     2.3920    22.4824 </r>
       <r>   -10.8908     0.2025    24.0000 </r>
       <r>   -10.5948     0.0000    24.0000 </r>
       <r>   -10.2988     0.0000    24.0000 </r>
       <r>   -10.0027     0.0000    24.0000 </r>
       <r>    -9.7067     0.0000    24.0000 </r>
       <r>    -9.4106     0.0000    24.0000 </r>
       <r>    -9.1146     0.0000    24.0000 </r>
       <r>    -8.8186     0.0000    24.0000 </r>
       <r>    -8.5225     0.0000    24.0000 </r>
       <r>    -8.2265     0.0000    24.0000 </r>
       <r>    -7.9304     0.0000    24.0000 </r>
       <r>    -7.6344     0.0000    24.0000 </r>
       <r>    -7.3384     0.0000    24.0000 </r>
       <r>    -7.0423     0.0000    24.0000 </r>
       <r>    -6.7463     0.0000    24.0000 </r>
       <r>    -6.4502     0.0000    24.0000 </r>
       <r>    -6.1542     0.0000    24.0000 </r>
       <r>    -5.8582     0.0000    24.0000 </r>
       <r>    -5.5621     0.0000    24.0000 </r>
       <r>    -5.2661     0.0000    24.0000 </r>
       <r>    -4.9700     0.0000    24.0000 </r>
       <r>    -4.6740     0.0000    24.0000 </r>
       <r>    -4.3780     0.0000    24.0000 </r>
       <r>    -4.0819     0.0000    24.0000 </r>
       <r>    -3.7859     0.0000    24.0000 </r>
       <r>    -3.4898     0.0000    24.0000 </r>
       <r>    -3.1938     0.0000    24.0000 </r>
       <r>    -2.8978     0.0000    24.0000 </r>
       <r>    -2.6017     0.0000    24.0000 </r>
       <r>    -2.3057     0.0000    24.0000 </r>
       <r>    -2.0096     0.0000    24.0000 </r>
       <r>    -1.7136     0.0000    24.0000 </r>
       <r>    -1.4175     0.0000    24.0000 </r>
       <r>    -1.1215     0.0000    24.0000 </r>
       <r>    -0.8255     0.0599    24.0195 </r>
       <r>    -0.5294     0.2398    24.3408 </r>
       <r>    -0.2334     1.2359    25.1084 </r>
       <r>     0.0627     1.8418    26.5823 </r>
       <r>     0.3587     1.7899    28.4611 </r>
       <r>     0.6547     1.6541    30.1740 </r>
       <r>     0.9508     0.6195    31.7125 </r>
       <r>     1.2468     0.9062    32.9473 </r>
       <r>     1.5429     0.9323    33.9921 </r>
       <r>     1.8389     0.9072    35.0816 </r>
       <r>     2.1349     1.2559    36.2431 </r>
       <r>     2.4310     1.7167    37.6493 </r>
       <r>     2.7270     1.3312    39.2953 </r>
       <r>     3.0231     1.1806    40.7181 </r>
       <r>     3.3191     1.2213    42.4356 </r>
       <r>     3.6151     1.5397    44.0502 </r>
       <r>     3.9112     1.3372    45.2953 </r>
       <r>     4.2072     1.3511    46.7915 </r>
       <r>     4.5033     0.4311    47.6109 </r>
       <r>     4.7993     0.1354    47.8761 </r>
       <r>     5.0953     0.0405    47.9996 </r>
       <r>     5.3914     0.0000    48.0000 </r>
       <r>     5.6874     0.0000    48.0000 </r>
       <r>     5.9835     0.0000    48.0000 </r>
       <r>     6.2795     0.0000    48.0000 </r>
       <r>     6.5755     0.0000    48.0000 </r>
       <r>     6.8716     0.0000    48.0000 </r>
       <r>     7.1676     0.8321    48.3927 </r>
       <r>     7.4637     1.3500    49.6025 </r>
       <r>     7.7597     2.6986    51.3544 </r>
       <r>     8.0557     1.3821    53.0882 </r>
       <r>     8.3518     1.9277    55.0451 </r>
       <r>     8.6478     1.0664    57.0970 </r>
       <r>     8.9439     0.9526    58.1991 </r>
       <r>     9.2399     1.0447    59.5174 </r>
       <r>     9.5360     0.2630    59.8539 </r>
       <r>     9.8320     0.1293    59.9871 </r>
       <r>    10.1280     0.0885    60.0385 </r>
       <r>    10.4241     0.8307    60.3817 </r>
       <r>    10.7201     0.9252    61.3656 </r>
       <r>    11.0162     0.3326    62.1496 </r>
       <r>    11.3122     1.0570    63.1436 </r>
       <r>    11.6082     1.3732    64.2884 </r>
       <r>    11.9043     1.1863    65.6369 </r>
       <r>    12.2003     0.5961    66.5627 </r>
       <r>    12.4964     1.3384    67.4315 </r>
       <r>    12.7924     0.1712    67.8937 </r>
       <r>    13.0884     0.0516    67.9818 </r>
       <r>    13.3845     0.0238    68.0123 </r>
       <r>    13.6805     0.0477    68.0476 </r>
       <r>    13.9766     0.0953    68.1005 </r>
       <r>    14.2726     0.0000    68.1429 </r>
       <r>    14.5686     0.1430    68.2593 </r>
       <r>    14.8647     0.0497    68.3163 </r>
       <r>    15.1607     0.0000    68.4497 </r>
       <r>    15.4568     0.0715    68.6014 </r>
       <r>    15.7528     0.2115    68.8051 </r>
       <r>    16.0488     0.3595    69.0253 </r>
       <r>    16.3449     0.2144    69.3386 </r>
       <r>    16.6409     0.1859    69.7605 </r>
       <r>    16.9370     0.6402    70.5440 </r>
       <r>    17.2330     0.2906    70.9979 </r>
       <r>    17.5290     0.3488    71.4736 </r>
       <r>    17.8251     0.2529    71.7592 </r>
       <r>    18.1211     0.0240    72.0582 </r>
       <r>    18.4172     0.1967    72.4127 </r>
       <r>    18.7132     0.1337    72.7292 </r>
       <r>    19.0092     0.4658    73.1943 </r>
       <r>    19.3053     0.3918    73.7403 </r>
       <r>    19.6013     1.1089    74.4182 </r>
       <r>    19.8974     0.2658    74.9817 </r>
       <r>    20.1934     0.8087    75.9043 </r>
       <r>    20.4895     1.8423    77.1697 </r>
       <r>    20.7855     0.6774    78.0171 </r>
       <r>    21.0815     0.4862    78.6854 </r>
       <r>    21.3776     0.4860    79.4120 </r>
       <r>    21.6736     0.3009    79.8757 </r>
       <r>    21.9697     0.2999    80.2898 </r>
       <r>    22.2657     0.2905    80.6469 </r>
       <r>    22.5617     0.6774    81.1459 </r>
       <r>    22.8578     0.9632    81.9112 </r>
       <r>    23.1538     0.8547    82.6445 </r>
       <r>    23.4499     0.5308    83.5998 </r>
       <r>    23.7459     0.8670    84.9445 </r>
       <r>    24.0419     0.7886    85.7061 </r>
       <r>    24.3380     0.8762    86.3000 </r>
       <r>    24.6340     0.8298    87.1063 </r>
       <r>    24.9301     0.5750    87.8563 </r>
       <r>    25.2261     0.7102    88.4713 </r>
       <r>    25.5221     0.3373    89.1334 </r>
       <r>    25.8182     0.5581    89.6326 </r>
       <r>    26.1142     0.2982    90.0742 </r>
       <r>    26.4103     0.3029    90.4495 </r>
       <r>    26.7063     0.2969    90.7828 </r>
       <r>    27.0023     0.6602    91.2554 </r>
       <r>    27.2984     0.5758    91.7242 </r>
       <r>    27.5944     0.3790    92.2798 </r>
       <r>    27.8905     0.6322    92.8627 </r>
       <r>    28.1865     0.4957    93.3125 </r>
       <r>    28.4825     0.1178    94.1372 </r>
       <r>    28.7786     0.4541    94.6353 </r>
       <r>    29.0746     0.4578    95.1514 </r>
       <r>    29.3707     0.4376    95.6604 </r>
       <r>    29.6667     0.3297    95.9565 </r>
       <r>    29.9627     0.0000    96.0000 </r>
       <r>    30.2588     0.0000    96.0000 </r>
       <r>    30.5548     0.0000    96.0000 </r>
       <r>    30.8509     0.0000    96.0000 </r>
       <r>    31.1469     0.0000    96.0000 </r>
       <r>    31.4430     0.0000    96.0000 </r>
       <r>    31.7390     0.0000    96.0000 </r>
       <r>    32.0350     0.0000    96.0000 </r>
       <r>    32.3311     0.0000    96.0000 </r>
       <r>    32.6271     0.0000    96.0000 </r>
       <r>    32.9232     0.0000    96.0000 </r>
       <r>    33.2192     0.0000    96.0000 </r>
       <r>    33.5152     0.0000    96.0000 </r>
       <r>    33.8113     0.0000    96.0000 </r>
      </set>
     </set>
    </array>
   </total>
  </dos>
 </calculation>
 <structure name="finalpos" >
  <crystal>
   <varray name="basis" >
    <v>       4.52075512       0.00000000       0.00000000 </v>
    <v>       0.00000000       4.52075512       0.00000000 </v>
    <v>       0.00000000       0.00000000       2.91180238 </v>
   </varray>
   <i name="volume">     59.50916559 </i>
   <varray name="rec_basis" >
    <v>       0.22120198      -0.00000000       0.00000000 </v>
    <v>       0.00000000       0.22120198       0.00000000 </v>
    <v>      -0.00000000      -0.00000000       0.34342990 </v>
   </varray>
  </crystal>
  <varray name="positions" >
   <v>       0.69668778       0.69668778       0.50000000 </v>
   <v>       0.19668778       0.80331222       0.00000000 </v>
   <v>       0.80331222       0.19668778       0.00000000 </v>
   <v>       0.30331222       0.30331222       0.50000000 </v>
   <v>       0.50000000       0.50000000       0.00000000 </v>
   <v>       0.00000000       0.00000000       0.50000000 </v>
  </varray>
 </structure>
</modeling>
