<?xml version="1.0" encoding="ISO-8859-1"?>
<modeling>
 <generator>
  <i name="program" type="string">vasp </i>
  <i name="version" type="string">5.4.4.18Apr17-6-g9f103f2a35  </i>
  <i name="subversion" type="string">(build Feb 28 2020 16:27:09) complex            parallel </i>
  <i name="platform" type="string">LinuxIFC </i>
  <i name="date" type="string">2024 09 26 </i>
  <i name="time" type="string">20:11:50 </i>
 </generator>
 <incar>
  <i type="string" name="PREC">accurate</i>
  <i type="string" name="ALGO"> Normal</i>
  <i type="int" name="IBRION">     2</i>
  <i name="EDIFF">      0.00000001</i>
  <i name="EDIFFG">     -0.00100000</i>
  <i type="int" name="NSW">   300</i>
  <i type="int" name="ISIF">     3</i>
  <i name="ENCUT">    400.00000000</i>
  <i type="logical" name="LREAL"> F  </i>
  <i type="int" name="ISMEAR">     0</i>
  <i name="SIGMA">      0.01000000</i>
  <i type="logical" name="LWAVE"> F  </i>
  <i type="logical" name="LCHARG"> F  </i>
  <i type="int" name="LORBIT">    11</i>
  <v type="int" name="KPOINT_BSE">    -1     0     0     0</v>
 </incar>
 <structure name="primitive_cell" >
  <crystal>
   <varray name="basis" >
    <v>       4.59983732       0.00000000       0.00000000 </v>
    <v>       0.00000000       4.59983732       0.00000000 </v>
    <v>       0.00000000       0.00000000       2.95921356 </v>
   </varray>
   <i name="volume">     62.61253019 </i>
   <varray name="rec_basis" >
    <v>       0.21739899      -0.00000000       0.00000000 </v>
    <v>       0.00000000       0.21739899       0.00000000 </v>
    <v>      -0.00000000      -0.00000000       0.33792762 </v>
   </varray>
  </crystal>
  <varray name="positions" >
   <v>      -0.30432132      -0.30432132      -0.50000000 </v>
   <v>      -0.50000000      -0.50000000       0.00000000 </v>
   <v>       0.00000000       0.00000000      -0.50000000 </v>
   <v>       0.30432132       0.30432132      -0.50000000 </v>
   <v>       0.19567868      -0.19567868       0.00000000 </v>
   <v>      -0.19567868       0.19567868       0.00000000 </v>
  </varray>
 </structure>
 <varray name="primitive_index" >
  <v type="int" >        1 </v>
  <v type="int" >        5 </v>
  <v type="int" >        6 </v>
  <v type="int" >        4 </v>
  <v type="int" >        2 </v>
  <v type="int" >        3 </v>
 </varray>
 <kpoints>
  <generation param="Gamma">
   <v type="int" name="divisions">       5        5        7 </v>
   <v name="usershift">      0.00000000       0.00000000       0.00000000 </v>
   <v name="genvec1">      0.20000000      -0.00000000       0.00000000 </v>
   <v name="genvec2">      0.00000000       0.20000000       0.00000000 </v>
   <v name="genvec3">      0.00000000       0.00000000       0.14285714 </v>
   <v name="shift">      0.00000000       0.00000000       0.00000000 </v>
  </generation>
  <varray name="kpointlist" >
   <v>       0.00000000       0.00000000       0.00000000 </v>
   <v>       0.20000000       0.00000000       0.00000000 </v>
   <v>       0.40000000       0.00000000       0.00000000 </v>
   <v>       0.20000000       0.20000000       0.00000000 </v>
   <v>       0.40000000       0.20000000       0.00000000 </v>
   <v>       0.40000000       0.40000000       0.00000000 </v>
   <v>       0.00000000       0.00000000       0.14285714 </v>
   <v>       0.20000000       0.00000000       0.14285714 </v>
   <v>       0.40000000       0.00000000       0.14285714 </v>
   <v>       0.20000000       0.20000000       0.14285714 </v>
   <v>       0.40000000       0.20000000       0.14285714 </v>
   <v>       0.40000000       0.40000000       0.14285714 </v>
   <v>       0.00000000       0.00000000       0.28571429 </v>
   <v>       0.20000000       0.00000000       0.28571429 </v>
   <v>       0.40000000       0.00000000       0.28571429 </v>
   <v>       0.20000000       0.20000000       0.28571429 </v>
   <v>       0.40000000       0.20000000       0.28571429 </v>
   <v>       0.40000000       0.40000000       0.28571429 </v>
   <v>      -0.00000000       0.00000000       0.42857143 </v>
   <v>       0.20000000       0.00000000       0.42857143 </v>
   <v>       0.40000000      -0.00000000       0.42857143 </v>
   <v>       0.20000000       0.20000000       0.42857143 </v>
   <v>       0.40000000       0.20000000       0.42857143 </v>
   <v>       0.40000000       0.40000000       0.42857143 </v>
  </varray>
  <varray name="weights" >
   <v>       0.00571429 </v>
   <v>       0.02285714 </v>
   <v>       0.02285714 </v>
   <v>       0.02285714 </v>
   <v>       0.04571429 </v>
   <v>       0.02285714 </v>
   <v>       0.01142857 </v>
   <v>       0.04571429 </v>
   <v>       0.04571429 </v>
   <v>       0.04571429 </v>
   <v>       0.09142857 </v>
   <v>       0.04571429 </v>
   <v>       0.01142857 </v>
   <v>       0.04571429 </v>
   <v>       0.04571429 </v>
   <v>       0.04571429 </v>
   <v>       0.09142857 </v>
   <v>       0.04571429 </v>
   <v>       0.01142857 </v>
   <v>       0.04571429 </v>
   <v>       0.04571429 </v>
   <v>       0.04571429 </v>
   <v>       0.09142857 </v>
   <v>       0.04571429 </v>
  </varray>
 </kpoints>
 <parameters>
  <separator name="general" >
   <i type="string" name="SYSTEM">unknown system</i>
   <i type="logical" name="LCOMPAT"> F  </i>
  </separator>
  <separator name="electronic" >
   <i type="string" name="PREC">accura</i>
   <i name="ENMAX">    400.00000000</i>
   <i name="ENAUG">    605.39200000</i>
   <i name="EDIFF">      0.00000001</i>
   <i type="int" name="IALGO">    38</i>
   <i type="int" name="IWAVPR">    11</i>
   <i type="int" name="NBANDS">    36</i>
   <i name="NELECT">     48.00000000</i>
   <i type="int" name="TURBO">     0</i>
   <i type="int" name="IRESTART">     0</i>
   <i type="int" name="NREBOOT">     0</i>
   <i type="int" name="NMIN">     0</i>
   <i name="EREF">      0.00000000</i>
   <separator name="electronic smearing" >
    <i type="int" name="ISMEAR">     0</i>
    <i name="SIGMA">      0.01000000</i>
    <i name="KSPACING">      0.50000000</i>
    <i type="logical" name="KGAMMA"> T  </i>
   </separator>
   <separator name="electronic projectors" >
    <i type="logical" name="LREAL"> F  </i>
    <v name="ROPT">      0.00000000      0.00000000</v>
    <i type="int" name="LMAXPAW">  -100</i>
    <i type="int" name="LMAXMIX">     2</i>
    <i type="logical" name="NLSPLINE"> F  </i>
   </separator>
   <separator name="electronic startup" >
    <i type="int" name="ISTART">     0</i>
    <i type="int" name="ICHARG">     2</i>
    <i type="int" name="INIWAV">     1</i>
   </separator>
   <separator name="electronic spin" >
    <i type="int" name="ISPIN">     1</i>
    <i type="logical" name="LNONCOLLINEAR"> F  </i>
    <v name="MAGMOM">      1.00000000      1.00000000      1.00000000      1.00000000      1.00000000      1.00000000</v>
    <i name="NUPDOWN">     -1.00000000</i>
    <i type="logical" name="LSORBIT"> F  </i>
    <v name="SAXIS">      0.00000000      0.00000000      1.00000000</v>
    <i type="logical" name="LSPIRAL"> F  </i>
    <v name="QSPIRAL">      0.00000000      0.00000000      0.00000000</v>
    <i type="logical" name="LZEROZ"> F  </i>
   </separator>
   <separator name="electronic exchange-correlation" >
    <i type="logical" name="LASPH"> F  </i>
    <i type="logical" name="LMETAGGA"> F  </i>
   </separator>
   <separator name="electronic convergence" >
    <i type="int" name="NELM">    60</i>
    <i type="int" name="NELMDL">    -5</i>
    <i type="int" name="NELMIN">     2</i>
    <i name="ENINI">    400.00000000</i>
    <separator name="electronic convergence detail" >
     <i type="logical" name="LDIAG"> T  </i>
     <i type="logical" name="LSUBROT"> F  </i>
     <i name="WEIMIN">      0.00100000</i>
     <i name="EBREAK">      0.00000000</i>
     <i name="DEPER">      0.30000000</i>
     <i type="int" name="NRMM">     4</i>
     <i name="TIME">      0.40000000</i>
    </separator>
   </separator>
   <separator name="electronic mixer" >
    <i name="AMIX">      0.40000000</i>
    <i name="BMIX">      1.00000000</i>
    <i name="AMIN">      0.10000000</i>
    <i name="AMIX_MAG">      1.60000000</i>
    <i name="BMIX_MAG">      1.00000000</i>
    <separator name="electronic mixer details" >
     <i type="int" name="IMIX">     4</i>
     <i type="logical" name="MIXFIRST"> F  </i>
     <i type="int" name="MAXMIX">   -45</i>
     <i name="WC">    100.00000000</i>
     <i type="int" name="INIMIX">     1</i>
     <i type="int" name="MIXPRE">     1</i>
     <i type="int" name="MREMOVE">     5</i>
    </separator>
   </separator>
   <separator name="electronic dipolcorrection" >
    <i type="logical" name="LDIPOL"> F  </i>
    <i type="logical" name="LMONO"> F  </i>
    <i type="int" name="IDIPOL">     0</i>
    <i name="EPSILON">      1.00000000</i>
    <v name="DIPOL">   -100.00000000   -100.00000000   -100.00000000</v>
    <i name="EFIELD">      0.00000000</i>
   </separator>
  </separator>
  <separator name="grids" >
   <i type="int" name="NGX">    30</i>
   <i type="int" name="NGY">    30</i>
   <i type="int" name="NGZ">    20</i>
   <i type="int" name="NGXF">    60</i>
   <i type="int" name="NGYF">    60</i>
   <i type="int" name="NGZF">    40</i>
   <i type="logical" name="ADDGRID"> F  </i>
  </separator>
  <separator name="ionic" >
   <i type="int" name="NSW">   300</i>
   <i type="int" name="IBRION">     2</i>
   <i type="int" name="MDALGO">     0</i>
   <i type="int" name="ISIF">     3</i>
   <i name="PSTRESS">      0.00000000</i>
   <i name="EDIFFG">     -0.00100000</i>
   <i type="int" name="NFREE">     1</i>
   <i name="POTIM">      0.50000000</i>
   <i name="SMASS">     -3.00000000</i>
   <i name="SCALEE">      1.00000000</i>
  </separator>
  <separator name="ionic md" >
   <i name="TEBEG">      0.00010000</i>
   <i name="TEEND">      0.00010000</i>
   <i type="int" name="NBLOCK">     1</i>
   <i type="int" name="KBLOCK">   300</i>
   <i type="int" name="NPACO">   256</i>
   <i name="APACO">     16.00000000</i>
  </separator>
  <separator name="symmetry" >
   <i type="int" name="ISYM">     2</i>
   <i name="SYMPREC">      0.00001000</i>
  </separator>
  <separator name="dos" >
   <i type="int" name="LORBIT">    11</i>
   <v name="RWIGS">     -1.00000000     -1.00000000</v>
   <i type="int" name="NEDOS">   301</i>
   <i name="EMIN">     10.00000000</i>
   <i name="EMAX">    -10.00000000</i>
   <i name="EFERMI">      0.00000000</i>
  </separator>
  <separator name="writing" >
   <i type="int" name="NWRITE">     2</i>
   <i type="logical" name="LWAVE"> F  </i>
   <i type="logical" name="LDOWNSAMPLE"> F  </i>
   <i type="logical" name="LCHARG"> F  </i>
   <i type="logical" name="LPARD"> F  </i>
   <i type="logical" name="LVTOT"> F  </i>
   <i type="logical" name="LVHAR"> F  </i>
   <i type="logical" name="LELF"> F  </i>
   <i type="logical" name="LOPTICS"> F  </i>
   <v name="STM">      0.00000000      0.00000000      0.00000000      0.00000000      0.00000000      0.00000000      0.00000000</v>
  </separator>
  <separator name="performance" >
   <i type="int" name="NPAR">    12</i>
   <i type="int" name="NSIM">     4</i>
   <i type="int" name="NBLK">    -1</i>
   <i type="logical" name="LPLANE"> T  </i>
   <i type="logical" name="LSCALAPACK"> F  </i>
   <i type="logical" name="LSCAAWARE"> F  </i>
   <i type="logical" name="LSCALU"> F  </i>
   <i type="logical" name="LASYNC"> F  </i>
   <i type="logical" name="LORBITALREAL"> F  </i>
  </separator>
  <separator name="miscellaneous" >
   <i type="int" name="IDIOT">     3</i>
   <i type="int" name="ISPECIAL">     0</i>
   <i type="logical" name="LMUSIC"> F  </i>
   <v name="POMASS">     16.00000000     47.88000000</v>
   <v name="DARWINR">      0.00000000      0.00000000</v>
   <v name="DARWINV">      1.00000000      1.00000000</v>
   <i type="logical" name="LCORR"> T  </i>
  </separator>
  <i type="logical" name="GGA_COMPAT"> T  </i>
  <i type="logical" name="LBERRY"> F  </i>
  <i type="int" name="ICORELEVEL">     0</i>
  <i type="logical" name="LDAU"> F  </i>
  <i type="int" name="I_CONSTRAINED_M">     0</i>
  <separator name="electronic exchange-correlation" >
   <i type="string" name="GGA">--</i>
   <i type="int" name="VOSKOWN">     0</i>
   <i type="logical" name="LHFCALC"> F  </i>
   <i type="string" name="PRECFOCK"></i>
   <i type="logical" name="LSYMGRAD"> F  </i>
   <i type="logical" name="LHFONE"> F  </i>
   <i type="logical" name="LRHFCALC"> F  </i>
   <i type="logical" name="LTHOMAS"> F  </i>
   <i type="logical" name="LMODELHF"> F  </i>
   <i name="ENCUT4O">     -1.00000000</i>
   <i type="int" name="EXXOEP">     0</i>
   <i type="int" name="FOURORBIT">     0</i>
   <i name="AEXX">      0.00000000</i>
   <i name="HFALPHA">      0.00000000</i>
   <i name="MCALPHA">      0.00000000</i>
   <i name="ALDAX">      1.00000000</i>
   <i name="AGGAX">      1.00000000</i>
   <i name="ALDAC">      1.00000000</i>
   <i name="AGGAC">      1.00000000</i>
   <i type="int" name="NKREDX">     1</i>
   <i type="int" name="NKREDY">     1</i>
   <i type="int" name="NKREDZ">     1</i>
   <i type="logical" name="SHIFTRED"> F  </i>
   <i type="logical" name="ODDONLY"> F  </i>
   <i type="logical" name="EVENONLY"> F  </i>
   <i type="int" name="LMAXFOCK">     0</i>
   <i type="int" name="NMAXFOCKAE">     0</i>
   <i type="logical" name="LFOCKAEDFT"> F  </i>
   <i name="HFSCREEN">      0.00000000</i>
   <i name="HFSCREENC">      0.00000000</i>
   <i type="int" name="NBANDSGWLOW">     0</i>
  </separator>
  <separator name="vdW DFT" >
   <i type="logical" name="LUSE_VDW"> F  </i>
   <i name="Zab_VDW">     -0.84910000</i>
   <i name="PARAM1">      0.12340000</i>
   <i name="PARAM2">      1.00000000</i>
   <i name="PARAM3">      0.00000000</i>
  </separator>
  <separator name="model GW" >
   <i type="int" name="MODEL_GW">     0</i>
   <i name="MODEL_EPS0">      6.26125302</i>
   <i name="MODEL_ALPHA">      1.00000000</i>
  </separator>
  <separator name="linear response parameters" >
   <i type="logical" name="LEPSILON"> F  </i>
   <i type="logical" name="LRPA"> F  </i>
   <i type="logical" name="LNABLA"> F  </i>
   <i type="logical" name="LVEL"> F  </i>
   <i type="int" name="KINTER">     0</i>
   <i name="CSHIFT">      0.10000000</i>
   <i name="OMEGAMAX">     -1.00000000</i>
   <i name="DEG_THRESHOLD">      0.00200000</i>
   <i name="RTIME">     -0.10000000</i>
   <i name="WPLASMAI">      0.00000000</i>
   <v name="DFIELD">      0.00000000      0.00000000      0.00000000</v>
   <v name="WPLASMA">      0.00000000      0.00000000      0.00000000      0.00000000      0.00000000      0.00000000      0.00000000      0.00000000      0.00000000</v>
  </separator>
  <separator name="orbital magnetization" >
   <i type="logical" name="NUCIND"> F  </i>
   <v name="MAGPOS">      0.00000000      0.00000000      0.00000000</v>
   <i type="logical" name="LNICSALL"> T  </i>
   <i type="logical" name="ORBITALMAG"> F  </i>
   <i type="logical" name="LMAGBLOCH"> F  </i>
   <i type="logical" name="LCHIMAG"> F  </i>
   <i type="logical" name="LGAUGE"> T  </i>
   <i type="int" name="MAGATOM">     0</i>
   <v name="MAGDIPOL">      0.00000000      0.00000000      0.00000000</v>
   <v name="AVECCONST">      0.00000000      0.00000000      0.00000000</v>
  </separator>
  <separator name="response functions" >
   <i type="logical" name="LADDER"> F  </i>
   <i type="logical" name="LRPAFORCE"> F  </i>
   <i type="logical" name="LFXC"> F  </i>
   <i type="logical" name="LHARTREE"> T  </i>
   <i type="int" name="IBSE">     0</i>
   <v type="int" name="KPOINT">    -1     0     0     0</v>
   <i type="logical" name="LTCTE"> F  </i>
   <i type="logical" name="LTETE"> F  </i>
   <i type="logical" name="LTRIPLET"> F  </i>
   <i type="logical" name="LFXCEPS"> F  </i>
   <i type="logical" name="LFXHEG"> F  </i>
   <i type="int" name="NATURALO">     2</i>
   <i type="logical" name="L2ORDER"> F  </i>
   <i type="logical" name="LMP2LT"> F  </i>
   <i type="logical" name="LUSEW"> F  </i>
   <i name="ENCUTGW">     -2.00000000</i>
   <i name="ENCUTGWSOFT">     -2.00000000</i>
   <i name="ENCUTLF">     -1.00000000</i>
   <i type="int" name="LMAXMP2">    -1</i>
   <i name="SCISSOR">      0.00000000</i>
   <i type="int" name="NOMEGA">     0</i>
   <i type="int" name="NOMEGAR">     0</i>
   <i type="int" name="NBANDSGW">    -1</i>
   <i type="int" name="NBANDSO">    -1</i>
   <i type="int" name="NBANDSV">    -1</i>
   <i type="int" name="NELM">     1</i>
   <i type="int" name="NELMHF">     1</i>
   <i type="int" name="DIM">     3</i>
   <i type="int" name="ANTIRES">     0</i>
   <i name="OMEGAMAX">    -30.00000000</i>
   <i name="OMEGAMIN">    -30.00000000</i>
   <i name="OMEGATL">   -200.00000000</i>
   <i type="int" name="OMEGAGRID">   140</i>
   <i name="CSHIFT">     -0.10000000</i>
   <i type="logical" name="SELFENERGY"> F  </i>
   <i type="logical" name="LSPECTRAL"> F  </i>
   <i type="logical" name="LSPECTRALGW"> F  </i>
   <i type="logical" name="LSINGLES"> F  </i>
   <i type="logical" name="LFERMIGW"> F  </i>
   <i type="logical" name="ODDONLYGW"> F  </i>
   <i type="logical" name="EVENONLYGW"> F  </i>
   <i type="int" name="NKREDLFX">     1</i>
   <i type="int" name="NKREDLFY">     1</i>
   <i type="int" name="NKREDLFZ">     1</i>
   <i type="int" name="MAXMEM">  2800</i>
   <i type="int" name="TELESCOPE">     0</i>
   <i type="int" name="TAUPAR">     1</i>
   <i type="int" name="OMEGAPAR">    -1</i>
   <i name="LAMBDA">      1.00000000</i>
  </separator>
  <separator name="External order field" >
   <i name="OFIELD_KAPPA">      0.00000000</i>
   <v name="OFIELD_K">      0.00000000      0.00000000      0.00000000</v>
   <i name="OFIELD_Q6_NEAR">      0.00000000</i>
   <i name="OFIELD_Q6_FAR">      0.00000000</i>
   <i name="OFIELD_A">      0.00000000</i>
  </separator>
 </parameters>
 <atominfo>
  <atoms>       6 </atoms>
  <types>       2 </types>
  <array name="atoms" >
   <dimension dim="1">ion</dimension>
   <field type="string">element</field>
   <field type="int">atomtype</field>
   <set>
    <rc><c>O </c><c>   1</c></rc>
    <rc><c>O </c><c>   1</c></rc>
    <rc><c>O </c><c>   1</c></rc>
    <rc><c>O </c><c>   1</c></rc>
    <rc><c>Ti</c><c>   2</c></rc>
    <rc><c>Ti</c><c>   2</c></rc>
   </set>
  </array>
  <array name="atomtypes" >
   <dimension dim="1">type</dimension>
   <field type="int">atomspertype</field>
   <field type="string">element</field>
   <field>mass</field>
   <field>valence</field>
   <field type="string">pseudopotential</field>
   <set>
    <rc><c>   4</c><c>O </c><c>     16.00000000</c><c>      6.00000000</c><c>  PAW_PBE O 08Apr2002                   </c></rc>
    <rc><c>   2</c><c>Ti</c><c>     47.88000000</c><c>     12.00000000</c><c>  PAW_PBE Ti_sv 26Sep2005               </c></rc>
   </set>
  </array>
 </atominfo>
 <structure name="initialpos" >
  <crystal>
   <varray name="basis" >
    <v>       4.59983732       0.00000000       0.00000000 </v>
    <v>       0.00000000       4.59983732       0.00000000 </v>
    <v>       0.00000000       0.00000000       2.95921356 </v>
   </varray>
   <i name="volume">     62.61253019 </i>
   <varray name="rec_basis" >
    <v>       0.21739899      -0.00000000       0.00000000 </v>
    <v>       0.00000000       0.21739899       0.00000000 </v>
    <v>      -0.00000000      -0.00000000       0.33792762 </v>
   </varray>
  </crystal>
  <varray name="positions" >
   <v>       0.69567868       0.69567868       0.50000000 </v>
   <v>       0.19567868       0.80432132       0.00000000 </v>
   <v>       0.80432132       0.19567868       0.00000000 </v>
   <v>       0.30432132       0.30432132       0.50000000 </v>
   <v>       0.50000000       0.50000000       0.00000000 </v>
   <v>       0.00000000       0.00000000       0.50000000 </v>
  </varray>
 </structure>
 <calculation>
  <scstep>
   <time name="dav">    0.46    0.48</time>
   <time name="total">    0.49    0.51</time>
   <energy>
    <i name="alphaZ">    198.04699453 </i>
    <i name="ewald">  -3593.13074703 </i>
    <i name="hartreedc">  -1257.23130025 </i>
    <i name="XCdc">    235.22340587 </i>
    <i name="pawpsdc">   3915.32828904 </i>
    <i name="pawaedc">  -3883.35319469 </i>
    <i name="eentropy">     -0.00025792 </i>
    <i name="bandstr">     -8.63711066 </i>
    <i name="atom">   4905.20341037 </i>
    <i name="e_fr_energy">    511.44948928 </i>
    <i name="e_wo_entrp">    511.44974719 </i>
    <i name="e_0_energy">    511.44961824 </i>
   </energy>
  </scstep>
  <scstep>
   <time name="dav">    0.53    0.53</time>
   <time name="total">    0.53    0.53</time>
   <energy>
    <i name="e_fr_energy">    -17.01975071 </i>
    <i name="e_wo_entrp">    -17.01975071 </i>
    <i name="e_0_energy">    -17.01975071 </i>
   </energy>
  </scstep>
  <scstep>
   <time name="dav">    0.66    0.66</time>
   <time name="total">    0.66    0.66</time>
   <energy>
    <i name="e_fr_energy">    -68.48833714 </i>
    <i name="e_wo_entrp">    -68.48833714 </i>
    <i name="e_0_energy">    -68.48833714 </i>
   </energy>
  </scstep>
  <scstep>
   <time name="dav">    0.59    0.59</time>
   <time name="total">    0.59    0.59</time>
   <energy>
    <i name="e_fr_energy">    -70.97808465 </i>
    <i name="e_wo_entrp">    -70.97808465 </i>
    <i name="e_0_energy">    -70.97808465 </i>
   </energy>
  </scstep>
  <scstep>
   <time name="dav">    0.59    0.59</time>
   <time name="total">    0.60    0.61</time>
   <energy>
    <i name="e_fr_energy">    -71.05439529 </i>
    <i name="e_wo_entrp">    -71.05439529 </i>
    <i name="e_0_energy">    -71.05439529 </i>
   </energy>
  </scstep>
  <scstep>
   <time name="dav">    0.58    0.58</time>
   <time name="total">    0.60    0.61</time>
   <energy>
    <i name="e_fr_energy">    -54.42363133 </i>
    <i name="e_wo_entrp">    -54.42363133 </i>
    <i name="e_0_energy">    -54.42363133 </i>
   </energy>
  </scstep>
  <scstep>
   <time name="dav">    0.50    0.50</time>
   <time name="total">    0.52    0.53</time>
   <energy>
    <i name="e_fr_energy">    -54.00378244 </i>
    <i name="e_wo_entrp">    -54.00378244 </i>
    <i name="e_0_energy">    -54.00378244 </i>
   </energy>
  </scstep>
  <scstep>
   <time name="dav">    0.53    0.53</time>
   <time name="total">    0.56    0.56</time>
   <energy>
    <i name="e_fr_energy">    -53.82904788 </i>
    <i name="e_wo_entrp">    -53.82904788 </i>
    <i name="e_0_energy">    -53.82904788 </i>
   </energy>
  </scstep>
  <scstep>
   <time name="dav">    0.60    0.60</time>
   <time name="total">    0.62    0.63</time>
   <energy>
    <i name="e_fr_energy">    -53.87338946 </i>
    <i name="e_wo_entrp">    -53.87338946 </i>
    <i name="e_0_energy">    -53.87338946 </i>
   </energy>
  </scstep>
  <scstep>
   <time name="dav">    0.66    0.66</time>
   <time name="total">    0.69    0.69</time>
   <energy>
    <i name="e_fr_energy">    -53.74317300 </i>
    <i name="e_wo_entrp">    -53.74317300 </i>
    <i name="e_0_energy">    -53.74317300 </i>
   </energy>
  </scstep>
  <scstep>
   <time name="dav">    0.56    0.56</time>
   <time name="total">    0.58    0.59</time>
   <energy>
    <i name="e_fr_energy">    -53.71281468 </i>
    <i name="e_wo_entrp">    -53.71281468 </i>
    <i name="e_0_energy">    -53.71281468 </i>
   </energy>
  </scstep>
  <scstep>
   <time name="dav">    0.56    0.55</time>
   <time name="total">    0.58    0.58</time>
   <energy>
    <i name="e_fr_energy">    -53.71176913 </i>
    <i name="e_wo_entrp">    -53.71176913 </i>
    <i name="e_0_energy">    -53.71176913 </i>
   </energy>
  </scstep>
  <scstep>
   <time name="dav">    0.54    0.54</time>
   <time name="total">    0.57    0.57</time>
   <energy>
    <i name="e_fr_energy">    -53.71134766 </i>
    <i name="e_wo_entrp">    -53.71134766 </i>
    <i name="e_0_energy">    -53.71134766 </i>
   </energy>
  </scstep>
  <scstep>
   <time name="dav">    0.52    0.52</time>
   <time name="total">    0.54    0.54</time>
   <energy>
    <i name="e_fr_energy">    -53.71116260 </i>
    <i name="e_wo_entrp">    -53.71116260 </i>
    <i name="e_0_energy">    -53.71116260 </i>
   </energy>
  </scstep>
  <scstep>
   <time name="dav">    0.58    0.58</time>
   <time name="total">    0.61    0.61</time>
   <energy>
    <i name="e_fr_energy">    -53.71114189 </i>
    <i name="e_wo_entrp">    -53.71114189 </i>
    <i name="e_0_energy">    -53.71114189 </i>
   </energy>
  </scstep>
  <scstep>
   <time name="dav">    0.69    0.69</time>
   <time name="total">    0.72    0.72</time>
   <energy>
    <i name="e_fr_energy">    -53.71113808 </i>
    <i name="e_wo_entrp">    -53.71113808 </i>
    <i name="e_0_energy">    -53.71113808 </i>
   </energy>
  </scstep>
  <scstep>
   <time name="dav">    0.57    0.57</time>
   <time name="total">    0.59    0.59</time>
   <energy>
    <i name="e_fr_energy">    -53.71113779 </i>
    <i name="e_wo_entrp">    -53.71113779 </i>
    <i name="e_0_energy">    -53.71113779 </i>
   </energy>
  </scstep>
  <scstep>
   <time name="dav">    0.50    0.49</time>
   <time name="total">    0.52    0.52</time>
   <energy>
    <i name="e_fr_energy">    -53.71113783 </i>
    <i name="e_wo_entrp">    -53.71113783 </i>
    <i name="e_0_energy">    -53.71113783 </i>
   </energy>
  </scstep>
  <scstep>
   <time name="dav">    0.63    0.63</time>
   <time name="total">    0.66    0.66</time>
   <energy>
    <i name="e_fr_energy">    -53.71113782 </i>
    <i name="e_wo_entrp">    -53.71113782 </i>
    <i name="e_0_energy">    -53.71113782 </i>
   </energy>
  </scstep>
  <scstep>
   <time name="dav">    0.31    0.31</time>
   <time name="total">    0.33    0.33</time>
   <energy>
    <i name="alphaZ">    198.04699453 </i>
    <i name="ewald">  -3593.13074703 </i>
    <i name="hartreedc">  -1238.80895829 </i>
    <i name="XCdc">    236.43708583 </i>
    <i name="pawpsdc">   5532.86864780 </i>
    <i name="pawaedc">  -5495.01995877 </i>
    <i name="eentropy">     -0.00000000 </i>
    <i name="bandstr">   -599.30761226 </i>
    <i name="atom">   4905.20341037 </i>
    <i name="e_fr_energy">    -53.71113782 </i>
    <i name="e_wo_entrp">    -53.71113782 </i>
    <i name="e_0_energy">    -53.71113782 </i>
   </energy>
  </scstep>
  <structure>
   <crystal>
    <varray name="basis" >
     <v>       4.59983732       0.00000000       0.00000000 </v>
     <v>       0.00000000       4.59983732       0.00000000 </v>
     <v>       0.00000000       0.00000000       2.95921356 </v>
    </varray>
    <i name="volume">     62.61253019 </i>
    <varray name="rec_basis" >
     <v>       0.21739899      -0.00000000       0.00000000 </v>
     <v>       0.00000000       0.21739899       0.00000000 </v>
     <v>      -0.00000000      -0.00000000       0.33792762 </v>
    </varray>
   </crystal>
   <varray name="positions" >
    <v>       0.69567868       0.69567868       0.50000000 </v>
    <v>       0.19567868       0.80432132       0.00000000 </v>
    <v>       0.80432132       0.19567868       0.00000000 </v>
    <v>       0.30432132       0.30432132       0.50000000 </v>
    <v>       0.50000000       0.50000000       0.00000000 </v>
    <v>       0.00000000       0.00000000       0.50000000 </v>
   </varray>
  </structure>
  <varray name="forces" >
   <v>       0.01558474       0.01558474       0.00000000 </v>
   <v>       0.01558474      -0.01558474       0.00000000 </v>
   <v>      -0.01558474       0.01558474      -0.00000000 </v>
   <v>      -0.01558474      -0.01558474      -0.00000000 </v>
   <v>      -0.00000000       0.00000000      -0.00000000 </v>
   <v>      -0.00000000       0.00000000      -0.00000000 </v>
  </varray>
  <varray name="stress" >
   <v>     -15.36984690      -0.00000000      -0.00000000 </v>
   <v>      -0.00000000     -15.36984690      -0.00000000 </v>
   <v>      -0.00000000      -0.00000000     -20.44112143 </v>
  </varray>
  <energy>
   <i name="e_fr_energy">    -53.71113782 </i>
   <i name="e_wo_entrp">    -53.71113782 </i>
   <i name="e_0_energy">     -0.00000000 </i>
  </energy>
  <time name="totalsc">   11.81   11.90</time>
 </calculation>
 <calculation>
  <scstep>
   <time name="dav">    0.61    0.61</time>
   <time name="total">    0.63    0.64</time>
   <energy>
    <i name="alphaZ">    201.26659665 </i>
    <i name="ewald">  -3612.17619950 </i>
    <i name="hartreedc">  -1245.58446343 </i>
    <i name="XCdc">    237.64972040 </i>
    <i name="pawpsdc">   5532.86875310 </i>
    <i name="pawaedc">  -5495.02037442 </i>
    <i name="eentropy">     -0.00000000 </i>
    <i name="bandstr">   -578.00282953 </i>
    <i name="atom">   4905.20341037 </i>
    <i name="e_fr_energy">    -53.79538635 </i>
    <i name="e_wo_entrp">    -53.79538635 </i>
    <i name="e_0_energy">    -53.79538635 </i>
   </energy>
  </scstep>
  <scstep>
   <time name="dav">    0.50    0.50</time>
   <time name="total">    0.53    0.53</time>
   <energy>
    <i name="e_fr_energy">    -53.71718184 </i>
    <i name="e_wo_entrp">    -53.71718184 </i>
    <i name="e_0_energy">    -53.71718184 </i>
   </energy>
  </scstep>
  <scstep>
   <time name="dav">    0.59    0.59</time>
   <time name="total">    0.62    0.62</time>
   <energy>
    <i name="e_fr_energy">    -53.70620435 </i>
    <i name="e_wo_entrp">    -53.70620435 </i>
    <i name="e_0_energy">    -53.70620435 </i>
   </energy>
  </scstep>
  <scstep>
   <time name="dav">    0.64    0.64</time>
   <time name="total">    0.67    0.67</time>
   <energy>
    <i name="e_fr_energy">    -53.70523511 </i>
    <i name="e_wo_entrp">    -53.70523511 </i>
    <i name="e_0_energy">    -53.70523511 </i>
   </energy>
  </scstep>
  <scstep>
   <time name="dav">    0.55    0.55</time>
   <time name="total">    0.58    0.57</time>
   <energy>
    <i name="e_fr_energy">    -53.70590156 </i>
    <i name="e_wo_entrp">    -53.70590156 </i>
    <i name="e_0_energy">    -53.70590156 </i>
   </energy>
  </scstep>
  <scstep>
   <time name="dav">    0.65    0.65</time>
   <time name="total">    0.68    0.68</time>
   <energy>
    <i name="e_fr_energy">    -53.70720612 </i>
    <i name="e_wo_entrp">    -53.70720612 </i>
    <i name="e_0_energy">    -53.70720612 </i>
   </energy>
  </scstep>
  <scstep>
   <time name="dav">    0.50    0.50</time>
   <time name="total">    0.53    0.53</time>
   <energy>
    <i name="e_fr_energy">    -53.70729559 </i>
    <i name="e_wo_entrp">    -53.70729559 </i>
    <i name="e_0_energy">    -53.70729559 </i>
   </energy>
  </scstep>
  <scstep>
   <time name="dav">    0.61    0.61</time>
   <time name="total">    0.64    0.64</time>
   <energy>
    <i name="e_fr_energy">    -53.70731002 </i>
    <i name="e_wo_entrp">    -53.70731002 </i>
    <i name="e_0_energy">    -53.70731002 </i>
   </energy>
  </scstep>
  <scstep>
   <time name="dav">    0.46    0.46</time>
   <time name="total">    0.49    0.49</time>
   <energy>
    <i name="e_fr_energy">    -53.70731008 </i>
    <i name="e_wo_entrp">    -53.70731008 </i>
    <i name="e_0_energy">    -53.70731008 </i>
   </energy>
  </scstep>
  <scstep>
   <time name="dav">    0.49    0.49</time>
   <time name="total">    0.52    0.52</time>
   <energy>
    <i name="e_fr_energy">    -53.70730987 </i>
    <i name="e_wo_entrp">    -53.70730987 </i>
    <i name="e_0_energy">    -53.70730987 </i>
   </energy>
  </scstep>
  <scstep>
   <time name="dav">    0.49    0.49</time>
   <time name="total">    0.52    0.52</time>
   <energy>
    <i name="e_fr_energy">    -53.70730980 </i>
    <i name="e_wo_entrp">    -53.70730980 </i>
    <i name="e_0_energy">    -53.70730980 </i>
   </energy>
  </scstep>
  <scstep>
   <time name="dav">    0.30    0.30</time>
   <time name="total">    0.33    0.33</time>
   <energy>
    <i name="e_fr_energy">    -53.70730986 </i>
    <i name="e_wo_entrp">    -53.70730986 </i>
    <i name="e_0_energy">    -53.70730986 </i>
   </energy>
  </scstep>
  <scstep>
   <time name="dav">    0.29    0.29</time>
   <time name="total">    0.31    0.31</time>
   <energy>
    <i name="alphaZ">    201.26659665 </i>
    <i name="ewald">  -3612.17619950 </i>
    <i name="hartreedc">  -1231.54918067 </i>
    <i name="XCdc">    236.80588102 </i>
    <i name="pawpsdc">   5622.10996358 </i>
    <i name="pawaedc">  -5583.60810963 </i>
    <i name="eentropy">     -0.00000000 </i>
    <i name="bandstr">   -591.75967168 </i>
    <i name="atom">   4905.20341037 </i>
    <i name="e_fr_energy">    -53.70730986 </i>
    <i name="e_wo_entrp">    -53.70730986 </i>
    <i name="e_0_energy">    -53.70730986 </i>
   </energy>
  </scstep>
  <structure>
   <crystal>
    <varray name="basis" >
     <v>       4.57762251      -0.00000000       0.00000000 </v>
     <v>       0.00000000       4.57762251       0.00000000 </v>
     <v>      -0.00000000      -0.00000000       2.94020664 </v>
    </varray>
    <i name="volume">     61.61093609 </i>
    <varray name="rec_basis" >
     <v>       0.21845401      -0.00000000       0.00000000 </v>
     <v>       0.00000000       0.21845401       0.00000000 </v>
     <v>      -0.00000000      -0.00000000       0.34011215 </v>
    </varray>
   </crystal>
   <varray name="positions" >
    <v>       0.69584214       0.69584214       0.50000000 </v>
    <v>       0.19584214       0.80415786       0.00000000 </v>
    <v>       0.80415786       0.19584214      -0.00000000 </v>
    <v>       0.30415786       0.30415786       0.50000000 </v>
    <v>       0.50000000       0.50000000      -0.00000000 </v>
    <v>      -0.00000000       0.00000000       0.50000000 </v>
   </varray>
  </structure>
  <varray name="forces" >
   <v>       0.05626814       0.05626814       0.00000000 </v>
   <v>       0.05626814      -0.05626814      -0.00000000 </v>
   <v>      -0.05626814       0.05626814       0.00000000 </v>
   <v>      -0.05626814      -0.05626814      -0.00000000 </v>
   <v>       0.00000000      -0.00000000       0.00000000 </v>
   <v>       0.00000000      -0.00000000       0.00000000 </v>
  </varray>
  <varray name="stress" >
   <v>      26.85661403       0.00000000       0.00000000 </v>
   <v>       0.00000000      26.85661403       0.00000000 </v>
   <v>       0.00000000       0.00000000      36.98649362 </v>
  </varray>
  <energy>
   <i name="e_fr_energy">    -53.70730986 </i>
   <i name="e_wo_entrp">    -53.70730986 </i>
   <i name="e_0_energy">     -0.00000000 </i>
  </energy>
  <time name="totalsc">    7.25    7.27</time>
 </calculation>
 <calculation>
  <scstep>
   <time name="dav">    0.62    0.62</time>
   <time name="total">    0.65    0.65</time>
   <energy>
    <i name="alphaZ">    199.23704060 </i>
    <i name="ewald">  -3600.19405407 </i>
    <i name="hartreedc">  -1227.33466837 </i>
    <i name="XCdc">    236.04578169 </i>
    <i name="pawpsdc">   5622.11152964 </i>
    <i name="pawaedc">  -5583.60947616 </i>
    <i name="eentropy">     -0.00000000 </i>
    <i name="bandstr">   -605.20757529 </i>
    <i name="atom">   4905.20341037 </i>
    <i name="e_fr_energy">    -53.74801158 </i>
    <i name="e_wo_entrp">    -53.74801158 </i>
    <i name="e_0_energy">    -53.74801158 </i>
   </energy>
  </scstep>
  <scstep>
   <time name="dav">    0.52    0.52</time>
   <time name="total">    0.55    0.55</time>
   <energy>
    <i name="e_fr_energy">    -53.71727373 </i>
    <i name="e_wo_entrp">    -53.71727373 </i>
    <i name="e_0_energy">    -53.71727373 </i>
   </energy>
  </scstep>
  <scstep>
   <time name="dav">    0.61    0.61</time>
   <time name="total">    0.63    0.63</time>
   <energy>
    <i name="e_fr_energy">    -53.71310644 </i>
    <i name="e_wo_entrp">    -53.71310644 </i>
    <i name="e_0_energy">    -53.71310644 </i>
   </energy>
  </scstep>
  <scstep>
   <time name="dav">    0.55    0.55</time>
   <time name="total">    0.58    0.58</time>
   <energy>
    <i name="e_fr_energy">    -53.71240148 </i>
    <i name="e_wo_entrp">    -53.71240148 </i>
    <i name="e_0_energy">    -53.71240148 </i>
   </energy>
  </scstep>
  <scstep>
   <time name="dav">    0.56    0.56</time>
   <time name="total">    0.59    0.59</time>
   <energy>
    <i name="e_fr_energy">    -53.71264318 </i>
    <i name="e_wo_entrp">    -53.71264318 </i>
    <i name="e_0_energy">    -53.71264318 </i>
   </energy>
  </scstep>
  <scstep>
   <time name="dav">    0.66    0.66</time>
   <time name="total">    0.69    0.69</time>
   <energy>
    <i name="e_fr_energy">    -53.71315963 </i>
    <i name="e_wo_entrp">    -53.71315963 </i>
    <i name="e_0_energy">    -53.71315963 </i>
   </energy>
  </scstep>
  <scstep>
   <time name="dav">    0.51    0.51</time>
   <time name="total">    0.53    0.54</time>
   <energy>
    <i name="e_fr_energy">    -53.71319815 </i>
    <i name="e_wo_entrp">    -53.71319815 </i>
    <i name="e_0_energy">    -53.71319815 </i>
   </energy>
  </scstep>
  <scstep>
   <time name="dav">    0.64    0.64</time>
   <time name="total">    0.66    0.67</time>
   <energy>
    <i name="e_fr_energy">    -53.71320207 </i>
    <i name="e_wo_entrp">    -53.71320207 </i>
    <i name="e_0_energy">    -53.71320207 </i>
   </energy>
  </scstep>
  <scstep>
   <time name="dav">    0.45    0.45</time>
   <time name="total">    0.48    0.48</time>
   <energy>
    <i name="e_fr_energy">    -53.71320206 </i>
    <i name="e_wo_entrp">    -53.71320206 </i>
    <i name="e_0_energy">    -53.71320206 </i>
   </energy>
  </scstep>
  <scstep>
   <time name="dav">    0.47    0.47</time>
   <time name="total">    0.50    0.50</time>
   <energy>
    <i name="e_fr_energy">    -53.71320233 </i>
    <i name="e_wo_entrp">    -53.71320233 </i>
    <i name="e_0_energy">    -53.71320233 </i>
   </energy>
  </scstep>
  <scstep>
   <time name="dav">    0.36    0.36</time>
   <time name="total">    0.38    0.38</time>
   <energy>
    <i name="e_fr_energy">    -53.71320237 </i>
    <i name="e_wo_entrp">    -53.71320237 </i>
    <i name="e_0_energy">    -53.71320237 </i>
   </energy>
  </scstep>
  <scstep>
   <time name="dav">    0.29    0.29</time>
   <time name="total">    0.32    0.32</time>
   <energy>
    <i name="e_fr_energy">    -53.71320233 </i>
    <i name="e_wo_entrp">    -53.71320233 </i>
    <i name="e_0_energy">    -53.71320233 </i>
   </energy>
  </scstep>
  <scstep>
   <time name="dav">    0.29    0.29</time>
   <time name="total">    0.31    0.31</time>
   <energy>
    <i name="alphaZ">    199.23704060 </i>
    <i name="ewald">  -3600.19405407 </i>
    <i name="hartreedc">  -1236.10694670 </i>
    <i name="XCdc">    236.57333914 </i>
    <i name="pawpsdc">   5565.45132280 </i>
    <i name="pawaedc">  -5527.36248391 </i>
    <i name="eentropy">     -0.00000000 </i>
    <i name="bandstr">   -596.51483057 </i>
    <i name="atom">   4905.20341037 </i>
    <i name="e_fr_energy">    -53.71320233 </i>
    <i name="e_wo_entrp">    -53.71320233 </i>
    <i name="e_0_energy">    -53.71320233 </i>
   </energy>
  </scstep>
  <structure>
   <crystal>
    <varray name="basis" >
     <v>       4.59157016      -0.00000000       0.00000000 </v>
     <v>       0.00000000       4.59157016       0.00000000 </v>
     <v>      -0.00000000      -0.00000000       2.95214020 </v>
    </varray>
    <i name="volume">     62.23854453 </i>
    <varray name="rec_basis" >
     <v>       0.21779042      -0.00000000       0.00000000 </v>
     <v>       0.00000000       0.21779042       0.00000000 </v>
     <v>      -0.00000000      -0.00000000       0.33873730 </v>
    </varray>
   </crystal>
   <varray name="positions" >
    <v>       0.69573901       0.69573901       0.50000000 </v>
    <v>       0.19573901       0.80426099      -0.00000000 </v>
    <v>       0.80426099       0.19573901       0.00000000 </v>
    <v>       0.30426099       0.30426099       0.50000000 </v>
    <v>       0.50000000       0.50000000      -0.00000000 </v>
    <v>      -0.00000000       0.00000000       0.50000000 </v>
   </varray>
  </structure>
  <varray name="forces" >
   <v>       0.03048295       0.03048295       0.00000000 </v>
   <v>       0.03048295      -0.03048295      -0.00000000 </v>
   <v>      -0.03048295       0.03048295       0.00000000 </v>
   <v>      -0.03048295      -0.03048295      -0.00000000 </v>
   <v>       0.00000000      -0.00000000       0.00000000 </v>
   <v>       0.00000000      -0.00000000       0.00000000 </v>
  </varray>
  <varray name="stress" >
   <v>       0.04710480      -0.00000000       0.00000000 </v>
   <v>       0.00000000       0.04710480       0.00000000 </v>
   <v>       0.00000000       0.00000000       0.53979311 </v>
  </varray>
  <energy>
   <i name="e_fr_energy">    -53.71320233 </i>
   <i name="e_wo_entrp">    -53.71320233 </i>
   <i name="e_0_energy">     -0.00000000 </i>
  </energy>
  <time name="totalsc">    7.10    7.12</time>
 </calculation>
 <calculation>
  <scstep>
   <time name="dav">    0.48    0.48</time>
   <time name="total">    0.51    0.51</time>
   <energy>
    <i name="alphaZ">    199.28671238 </i>
    <i name="ewald">  -3601.01572759 </i>
    <i name="hartreedc">  -1235.76432890 </i>
    <i name="XCdc">    236.58768155 </i>
    <i name="pawpsdc">   5565.45030629 </i>
    <i name="pawaedc">  -5527.36154792 </i>
    <i name="eentropy">     -0.00000000 </i>
    <i name="bandstr">   -596.09987694 </i>
    <i name="atom">   4905.20341037 </i>
    <i name="e_fr_energy">    -53.71337075 </i>
    <i name="e_wo_entrp">    -53.71337075 </i>
    <i name="e_0_energy">    -53.71337075 </i>
   </energy>
  </scstep>
  <scstep>
   <time name="dav">    0.52    0.52</time>
   <time name="total">    0.55    0.55</time>
   <energy>
    <i name="e_fr_energy">    -53.71340490 </i>
    <i name="e_wo_entrp">    -53.71340490 </i>
    <i name="e_0_energy">    -53.71340490 </i>
   </energy>
  </scstep>
  <scstep>
   <time name="dav">    0.60    0.60</time>
   <time name="total">    0.63    0.63</time>
   <energy>
    <i name="e_fr_energy">    -53.71338563 </i>
    <i name="e_wo_entrp">    -53.71338563 </i>
    <i name="e_0_energy">    -53.71338563 </i>
   </energy>
  </scstep>
  <scstep>
   <time name="dav">    0.72    0.72</time>
   <time name="total">    0.75    0.75</time>
   <energy>
    <i name="e_fr_energy">    -53.71338056 </i>
    <i name="e_wo_entrp">    -53.71338056 </i>
    <i name="e_0_energy">    -53.71338056 </i>
   </energy>
  </scstep>
  <scstep>
   <time name="dav">    0.46    0.46</time>
   <time name="total">    0.49    0.49</time>
   <energy>
    <i name="e_fr_energy">    -53.71338088 </i>
    <i name="e_wo_entrp">    -53.71338088 </i>
    <i name="e_0_energy">    -53.71338088 </i>
   </energy>
  </scstep>
  <scstep>
   <time name="dav">    1.21    1.21</time>
   <time name="total">    1.24    1.27</time>
   <energy>
    <i name="e_fr_energy">    -53.71338122 </i>
    <i name="e_wo_entrp">    -53.71338122 </i>
    <i name="e_0_energy">    -53.71338122 </i>
   </energy>
  </scstep>
  <scstep>
   <time name="dav">    0.47    0.47</time>
   <time name="total">    1.01    1.02</time>
   <energy>
    <i name="e_fr_energy">    -53.71338126 </i>
    <i name="e_wo_entrp">    -53.71338126 </i>
    <i name="e_0_energy">    -53.71338126 </i>
   </energy>
  </scstep>
  <scstep>
   <time name="dav">    0.83    0.84</time>
   <time name="total">    0.85    0.86</time>
   <energy>
    <i name="alphaZ">    199.28671238 </i>
    <i name="ewald">  -3601.01572759 </i>
    <i name="hartreedc">  -1235.43829950 </i>
    <i name="XCdc">    236.57134906 </i>
    <i name="pawpsdc">   5564.56827843 </i>
    <i name="pawaedc">  -5526.48097494 </i>
    <i name="eentropy">     -0.00000000 </i>
    <i name="bandstr">   -596.40812948 </i>
    <i name="atom">   4905.20341037 </i>
    <i name="e_fr_energy">    -53.71338126 </i>
    <i name="e_wo_entrp">    -53.71338126 </i>
    <i name="e_0_energy">    -53.71338126 </i>
   </energy>
  </scstep>
  <structure>
   <crystal>
    <varray name="basis" >
     <v>       4.59104676      -0.00000000       0.00000000 </v>
     <v>       0.00000000       4.59104676       0.00000000 </v>
     <v>      -0.00000000      -0.00000000       2.95207737 </v>
    </varray>
    <i name="volume">     62.22303171 </i>
    <varray name="rec_basis" >
     <v>       0.21781525      -0.00000000       0.00000000 </v>
     <v>       0.00000000       0.21781525       0.00000000 </v>
     <v>      -0.00000000      -0.00000000       0.33874451 </v>
    </varray>
   </crystal>
   <varray name="positions" >
    <v>       0.69602338       0.69602338       0.50000000 </v>
    <v>       0.19602338       0.80397662      -0.00000000 </v>
    <v>       0.80397662       0.19602338       0.00000000 </v>
    <v>       0.30397662       0.30397662       0.50000000 </v>
    <v>       0.50000000       0.50000000       0.00000000 </v>
    <v>      -0.00000000      -0.00000000       0.50000000 </v>
   </varray>
  </structure>
  <varray name="forces" >
   <v>       0.00397711       0.00397711       0.00000000 </v>
   <v>       0.00397711      -0.00397711      -0.00000000 </v>
   <v>      -0.00397711       0.00397711       0.00000000 </v>
   <v>      -0.00397711      -0.00397711      -0.00000000 </v>
   <v>      -0.00000000      -0.00000000       0.00000000 </v>
   <v>      -0.00000000      -0.00000000       0.00000000 </v>
  </varray>
  <varray name="stress" >
   <v>       0.00213908       0.00000000       0.00000000 </v>
   <v>       0.00000000       0.00213908       0.00000000 </v>
   <v>       0.00000000       0.00000000      -0.04085337 </v>
  </varray>
  <energy>
   <i name="e_fr_energy">    -53.71338126 </i>
   <i name="e_wo_entrp">    -53.71338126 </i>
   <i name="e_0_energy">     -0.00000000 </i>
  </energy>
  <time name="totalsc">    6.25    6.32</time>
 </calculation>
 <calculation>
  <scstep>
   <time name="dav">    5.49    5.53</time>
   <time name="total">    5.52    5.55</time>
   <energy>
    <i name="alphaZ">    199.29430999 </i>
    <i name="ewald">  -3601.14072637 </i>
    <i name="hartreedc">  -1235.38685209 </i>
    <i name="XCdc">    236.57356905 </i>
    <i name="pawpsdc">   5564.56787654 </i>
    <i name="pawaedc">  -5526.47997613 </i>
    <i name="eentropy">     -0.00000000 </i>
    <i name="bandstr">   -596.34499543 </i>
    <i name="atom">   4905.20341037 </i>
    <i name="e_fr_energy">    -53.71338407 </i>
    <i name="e_wo_entrp">    -53.71338407 </i>
    <i name="e_0_energy">    -53.71338407 </i>
   </energy>
  </scstep>
  <scstep>
   <time name="dav">    0.52    0.52</time>
   <time name="total">    0.55    0.55</time>
   <energy>
    <i name="e_fr_energy">    -53.71338474 </i>
    <i name="e_wo_entrp">    -53.71338474 </i>
    <i name="e_0_energy">    -53.71338474 </i>
   </energy>
  </scstep>
  <scstep>
   <time name="dav">    0.61    0.61</time>
   <time name="total">    0.64    0.64</time>
   <energy>
    <i name="e_fr_energy">    -53.71338430 </i>
    <i name="e_wo_entrp">    -53.71338430 </i>
    <i name="e_0_energy">    -53.71338430 </i>
   </energy>
  </scstep>
  <scstep>
   <time name="dav">    0.72    0.72</time>
   <time name="total">    0.75    0.75</time>
   <energy>
    <i name="e_fr_energy">    -53.71338420 </i>
    <i name="e_wo_entrp">    -53.71338420 </i>
    <i name="e_0_energy">    -53.71338420 </i>
   </energy>
  </scstep>
  <scstep>
   <time name="dav">    0.47    0.47</time>
   <time name="total">    0.49    0.49</time>
   <energy>
    <i name="e_fr_energy">    -53.71338425 </i>
    <i name="e_wo_entrp">    -53.71338425 </i>
    <i name="e_0_energy">    -53.71338425 </i>
   </energy>
  </scstep>
  <scstep>
   <time name="dav">    0.29    0.30</time>
   <time name="total">    0.32    0.33</time>
   <energy>
    <i name="e_fr_energy">    -53.71338429 </i>
    <i name="e_wo_entrp">    -53.71338429 </i>
    <i name="e_0_energy">    -53.71338429 </i>
   </energy>
  </scstep>
  <scstep>
   <time name="dav">    0.29    0.29</time>
   <time name="total">    0.31    0.31</time>
   <energy>
    <i name="alphaZ">    199.29430999 </i>
    <i name="ewald">  -3601.14072637 </i>
    <i name="hartreedc">  -1235.33671564 </i>
    <i name="XCdc">    236.57105637 </i>
    <i name="pawpsdc">   5564.43554130 </i>
    <i name="pawaedc">  -5526.34817849 </i>
    <i name="eentropy">     -0.00000000 </i>
    <i name="bandstr">   -596.39208182 </i>
    <i name="atom">   4905.20341037 </i>
    <i name="e_fr_energy">    -53.71338429 </i>
    <i name="e_wo_entrp">    -53.71338429 </i>
    <i name="e_0_energy">    -53.71338429 </i>
   </energy>
  </scstep>
  <structure>
   <crystal>
    <varray name="basis" >
     <v>       4.59096672      -0.00000000       0.00000000 </v>
     <v>       0.00000000       4.59096672       0.00000000 </v>
     <v>      -0.00000000      -0.00000000       2.95206776 </v>
    </varray>
    <i name="volume">     62.22065961 </i>
    <varray name="rec_basis" >
     <v>       0.21781905      -0.00000000       0.00000000 </v>
     <v>       0.00000000       0.21781905       0.00000000 </v>
     <v>      -0.00000000      -0.00000000       0.33874561 </v>
    </varray>
   </crystal>
   <varray name="positions" >
    <v>       0.69606687       0.69606687       0.50000000 </v>
    <v>       0.19606687       0.80393313      -0.00000000 </v>
    <v>       0.80393313       0.19606687       0.00000000 </v>
    <v>       0.30393313       0.30393313       0.50000000 </v>
    <v>       0.50000000       0.50000000       0.00000000 </v>
    <v>      -0.00000000      -0.00000000       0.50000000 </v>
   </varray>
  </structure>
  <varray name="forces" >
   <v>      -0.00006085      -0.00006085      -0.00000000 </v>
   <v>      -0.00006085       0.00006085      -0.00000000 </v>
   <v>       0.00006085      -0.00006085       0.00000000 </v>
   <v>       0.00006085       0.00006085       0.00000000 </v>
   <v>      -0.00000000      -0.00000000      -0.00000000 </v>
   <v>      -0.00000000       0.00000000      -0.00000000 </v>
  </varray>
  <varray name="stress" >
   <v>       0.01346561       0.00000000       0.00000000 </v>
   <v>       0.00000000       0.01346561       0.00000000 </v>
   <v>       0.00000000       0.00000000      -0.11172414 </v>
  </varray>
  <energy>
   <i name="e_fr_energy">    -53.71338429 </i>
   <i name="e_wo_entrp">    -53.71338429 </i>
   <i name="e_0_energy">     -0.00000000 </i>
  </energy>
  <time name="totalsc">    8.74    8.80</time>
  <eigenvalues>
   <array>
    <dimension dim="1">band</dimension>
    <dimension dim="2">kpoint</dimension>
    <dimension dim="3">spin</dimension>
    <field>eigene</field>
    <field>occ</field>
    <set>
     <set comment="spin 1">
      <set comment="kpoint 1">
       <r>  -52.0261    1.0000 </r>
       <r>  -52.0094    1.0000 </r>
       <r>  -28.3457    1.0000 </r>
       <r>  -28.3457    1.0000 </r>
       <r>  -28.1791    1.0000 </r>
       <r>  -28.1791    1.0000 </r>
       <r>  -28.1360    1.0000 </r>
       <r>  -28.1019    1.0000 </r>
       <r>  -13.3341    1.0000 </r>
       <r>  -12.1652    1.0000 </r>
       <r>  -11.4353    1.0000 </r>
       <r>  -11.4353    1.0000 </r>
       <r>   -0.8929    1.0000 </r>
       <r>   -0.4879    1.0000 </r>
       <r>   -0.0655    1.0000 </r>
       <r>    1.0632    1.0000 </r>
       <r>    1.0632    1.0000 </r>
       <r>    2.3173    1.0000 </r>
       <r>    2.3173    1.0000 </r>
       <r>    2.8959    1.0000 </r>
       <r>    4.1739    1.0000 </r>
       <r>    4.4193    1.0000 </r>
       <r>    4.4193    1.0000 </r>
       <r>    4.8897    1.0000 </r>
       <r>    6.7327    0.0000 </r>
       <r>    7.0182    0.0000 </r>
       <r>    7.2731    0.0000 </r>
       <r>    7.3785    0.0000 </r>
       <r>    7.3785    0.0000 </r>
       <r>    9.2920    0.0000 </r>
       <r>    9.4690    0.0000 </r>
       <r>   11.4843    0.0000 </r>
       <r>   11.4843    0.0000 </r>
       <r>   12.5393    0.0000 </r>
       <r>   12.7999    0.0000 </r>
       <r>   16.5721    0.0000 </r>
      </set>
      <set comment="kpoint 2">
       <r>  -52.0243    1.0000 </r>
       <r>  -52.0106    1.0000 </r>
       <r>  -28.3328    1.0000 </r>
       <r>  -28.3316    1.0000 </r>
       <r>  -28.1947    1.0000 </r>
       <r>  -28.1934    1.0000 </r>
       <r>  -28.1327    1.0000 </r>
       <r>  -28.1051    1.0000 </r>
       <r>  -13.1940    1.0000 </r>
       <r>  -12.1729    1.0000 </r>
       <r>  -11.5680    1.0000 </r>
       <r>  -11.4882    1.0000 </r>
       <r>   -0.6412    1.0000 </r>
       <r>   -0.3273    1.0000 </r>
       <r>    0.1995    1.0000 </r>
       <r>    1.0801    1.0000 </r>
       <r>    1.0901    1.0000 </r>
       <r>    2.0771    1.0000 </r>
       <r>    2.2407    1.0000 </r>
       <r>    2.9189    1.0000 </r>
       <r>    3.7460    1.0000 </r>
       <r>    3.9259    1.0000 </r>
       <r>    4.1358    1.0000 </r>
       <r>    4.7433    1.0000 </r>
       <r>    6.9409    0.0000 </r>
       <r>    7.2716    0.0000 </r>
       <r>    7.5350    0.0000 </r>
       <r>    7.5538    0.0000 </r>
       <r>    7.5926    0.0000 </r>
       <r>    9.2624    0.0000 </r>
       <r>    9.6031    0.0000 </r>
       <r>   11.3540    0.0000 </r>
       <r>   11.3790    0.0000 </r>
       <r>   12.2711    0.0000 </r>
       <r>   13.3022    0.0000 </r>
       <r>   16.4391    0.0000 </r>
      </set>
      <set comment="kpoint 3">
       <r>  -52.0201    1.0000 </r>
       <r>  -52.0144    1.0000 </r>
       <r>  -28.3010    1.0000 </r>
       <r>  -28.2987    1.0000 </r>
       <r>  -28.2299    1.0000 </r>
       <r>  -28.2276    1.0000 </r>
       <r>  -28.1241    1.0000 </r>
       <r>  -28.1136    1.0000 </r>
       <r>  -12.8199    1.0000 </r>
       <r>  -12.3745    1.0000 </r>
       <r>  -11.7025    1.0000 </r>
       <r>  -11.6135    1.0000 </r>
       <r>   -0.1744    1.0000 </r>
       <r>   -0.0399    1.0000 </r>
       <r>    1.0551    1.0000 </r>
       <r>    1.1135    1.0000 </r>
       <r>    1.1253    1.0000 </r>
       <r>    1.7127    1.0000 </r>
       <r>    1.9014    1.0000 </r>
       <r>    2.4013    1.0000 </r>
       <r>    3.0685    1.0000 </r>
       <r>    3.4458    1.0000 </r>
       <r>    4.0124    1.0000 </r>
       <r>    4.3434    1.0000 </r>
       <r>    7.2862    0.0000 </r>
       <r>    7.4498    0.0000 </r>
       <r>    7.8341    0.0000 </r>
       <r>    7.8903    0.0000 </r>
       <r>    8.1324    0.0000 </r>
       <r>    8.7562    0.0000 </r>
       <r>   10.4726    0.0000 </r>
       <r>   11.1417    0.0000 </r>
       <r>   11.1720    0.0000 </r>
       <r>   11.5053    0.0000 </r>
       <r>   14.4777    0.0000 </r>
       <r>   15.7114    0.0000 </r>
      </set>
      <set comment="kpoint 4">
       <r>  -52.0228    1.0000 </r>
       <r>  -52.0118    1.0000 </r>
       <r>  -28.3501    1.0000 </r>
       <r>  -28.2971    1.0000 </r>
       <r>  -28.2310    1.0000 </r>
       <r>  -28.1764    1.0000 </r>
       <r>  -28.1300    1.0000 </r>
       <r>  -28.1077    1.0000 </r>
       <r>  -13.0848    1.0000 </r>
       <r>  -12.2113    1.0000 </r>
       <r>  -11.6722    1.0000 </r>
       <r>  -11.4810    1.0000 </r>
       <r>   -0.7017    1.0000 </r>
       <r>   -0.0321    1.0000 </r>
       <r>    0.4197    1.0000 </r>
       <r>    1.0397    1.0000 </r>
       <r>    1.1295    1.0000 </r>
       <r>    1.8156    1.0000 </r>
       <r>    2.3956    1.0000 </r>
       <r>    2.9688    1.0000 </r>
       <r>    3.3868    1.0000 </r>
       <r>    3.8303    1.0000 </r>
       <r>    3.9566    1.0000 </r>
       <r>    4.6274    1.0000 </r>
       <r>    6.8082    0.0000 </r>
       <r>    7.3861    0.0000 </r>
       <r>    7.4308    0.0000 </r>
       <r>    7.8072    0.0000 </r>
       <r>    7.8660    0.0000 </r>
       <r>    9.1462    0.0000 </r>
       <r>    9.8013    0.0000 </r>
       <r>   11.1572    0.0000 </r>
       <r>   11.4829    0.0000 </r>
       <r>   12.0075    0.0000 </r>
       <r>   13.7932    0.0000 </r>
       <r>   16.6415    0.0000 </r>
      </set>
      <set comment="kpoint 5">
       <r>  -52.0197    1.0000 </r>
       <r>  -52.0153    1.0000 </r>
       <r>  -28.3389    1.0000 </r>
       <r>  -28.3047    1.0000 </r>
       <r>  -28.2248    1.0000 </r>
       <r>  -28.1895    1.0000 </r>
       <r>  -28.1231    1.0000 </r>
       <r>  -28.1146    1.0000 </r>
       <r>  -12.7967    1.0000 </r>
       <r>  -12.4408    1.0000 </r>
       <r>  -11.6877    1.0000 </r>
       <r>  -11.5721    1.0000 </r>
       <r>   -0.4922    1.0000 </r>
       <r>   -0.0859    1.0000 </r>
       <r>    1.0503    1.0000 </r>
       <r>    1.1056    1.0000 </r>
       <r>    1.1064    1.0000 </r>
       <r>    1.8456    1.0000 </r>
       <r>    2.2112    1.0000 </r>
       <r>    2.8259    1.0000 </r>
       <r>    3.1770    1.0000 </r>
       <r>    3.5295    1.0000 </r>
       <r>    3.7032    1.0000 </r>
       <r>    4.1659    1.0000 </r>
       <r>    7.0408    0.0000 </r>
       <r>    7.3688    0.0000 </r>
       <r>    7.5695    0.0000 </r>
       <r>    7.8668    0.0000 </r>
       <r>    8.2999    0.0000 </r>
       <r>    8.7904    0.0000 </r>
       <r>   10.4590    0.0000 </r>
       <r>   11.1555    0.0000 </r>
       <r>   11.3132    0.0000 </r>
       <r>   11.3628    0.0000 </r>
       <r>   14.8749    0.0000 </r>
       <r>   16.0028    0.0000 </r>
      </set>
      <set comment="kpoint 6">
       <r>  -52.0183    1.0000 </r>
       <r>  -52.0166    1.0000 </r>
       <r>  -28.3572    1.0000 </r>
       <r>  -28.3431    1.0000 </r>
       <r>  -28.1867    1.0000 </r>
       <r>  -28.1720    1.0000 </r>
       <r>  -28.1204    1.0000 </r>
       <r>  -28.1172    1.0000 </r>
       <r>  -12.7174    1.0000 </r>
       <r>  -12.5851    1.0000 </r>
       <r>  -11.6134    1.0000 </r>
       <r>  -11.5542    1.0000 </r>
       <r>   -0.6750    1.0000 </r>
       <r>   -0.4817    1.0000 </r>
       <r>    0.9990    1.0000 </r>
       <r>    1.0294    1.0000 </r>
       <r>    1.5889    1.0000 </r>
       <r>    2.0599    1.0000 </r>
       <r>    2.6162    1.0000 </r>
       <r>    3.0514    1.0000 </r>
       <r>    3.3961    1.0000 </r>
       <r>    3.4285    1.0000 </r>
       <r>    3.5921    1.0000 </r>
       <r>    3.9615    1.0000 </r>
       <r>    6.7767    0.0000 </r>
       <r>    7.0280    0.0000 </r>
       <r>    7.3991    0.0000 </r>
       <r>    7.5769    0.0000 </r>
       <r>    8.5909    0.0000 </r>
       <r>    8.7695    0.0000 </r>
       <r>   10.5949    0.0000 </r>
       <r>   10.9212    0.0000 </r>
       <r>   11.3596    0.0000 </r>
       <r>   11.4755    0.0000 </r>
       <r>   15.7161    0.0000 </r>
       <r>   16.3280    0.0000 </r>
      </set>
      <set comment="kpoint 7">
       <r>  -52.0177    1.0000 </r>
       <r>  -52.0022    1.0000 </r>
       <r>  -28.3233    1.0000 </r>
       <r>  -28.3233    1.0000 </r>
       <r>  -28.2218    1.0000 </r>
       <r>  -28.1923    1.0000 </r>
       <r>  -28.1752    1.0000 </r>
       <r>  -28.1752    1.0000 </r>
       <r>  -13.1263    1.0000 </r>
       <r>  -12.0492    1.0000 </r>
       <r>  -11.5324    1.0000 </r>
       <r>  -11.5324    1.0000 </r>
       <r>   -0.6020    1.0000 </r>
       <r>   -0.2709    1.0000 </r>
       <r>    0.1688    1.0000 </r>
       <r>    0.8582    1.0000 </r>
       <r>    0.8582    1.0000 </r>
       <r>    2.3204    1.0000 </r>
       <r>    2.7025    1.0000 </r>
       <r>    2.7025    1.0000 </r>
       <r>    3.3986    1.0000 </r>
       <r>    4.0240    1.0000 </r>
       <r>    4.0240    1.0000 </r>
       <r>    4.7761    1.0000 </r>
       <r>    7.1581    0.0000 </r>
       <r>    7.1893    0.0000 </r>
       <r>    7.1986    0.0000 </r>
       <r>    7.6296    0.0000 </r>
       <r>    7.6296    0.0000 </r>
       <r>    9.3056    0.0000 </r>
       <r>    9.5839    0.0000 </r>
       <r>   11.2076    0.0000 </r>
       <r>   11.2076    0.0000 </r>
       <r>   12.2296    0.0000 </r>
       <r>   13.4245    0.0000 </r>
       <r>   17.3679    0.0000 </r>
      </set>
      <set comment="kpoint 8">
       <r>  -52.0160    1.0000 </r>
       <r>  -52.0034    1.0000 </r>
       <r>  -28.3137    1.0000 </r>
       <r>  -28.3105    1.0000 </r>
       <r>  -28.2199    1.0000 </r>
       <r>  -28.2103    1.0000 </r>
       <r>  -28.1850    1.0000 </r>
       <r>  -28.1741    1.0000 </r>
       <r>  -12.9976    1.0000 </r>
       <r>  -12.0460    1.0000 </r>
       <r>  -11.6611    1.0000 </r>
       <r>  -11.5771    1.0000 </r>
       <r>   -0.3802    1.0000 </r>
       <r>   -0.1011    1.0000 </r>
       <r>    0.3203    1.0000 </r>
       <r>    0.8354    1.0000 </r>
       <r>    1.0336    1.0000 </r>
       <r>    2.1667    1.0000 </r>
       <r>    2.3979    1.0000 </r>
       <r>    2.7139    1.0000 </r>
       <r>    3.0377    1.0000 </r>
       <r>    3.8386    1.0000 </r>
       <r>    3.8995    1.0000 </r>
       <r>    4.6236    1.0000 </r>
       <r>    7.2294    0.0000 </r>
       <r>    7.3955    0.0000 </r>
       <r>    7.4732    0.0000 </r>
       <r>    7.6627    0.0000 </r>
       <r>    7.8607    0.0000 </r>
       <r>    9.1245    0.0000 </r>
       <r>    9.8371    0.0000 </r>
       <r>   10.9502    0.0000 </r>
       <r>   11.1060    0.0000 </r>
       <r>   12.1390    0.0000 </r>
       <r>   13.8909    0.0000 </r>
       <r>   17.0979    0.0000 </r>
      </set>
      <set comment="kpoint 9">
       <r>  -52.0120    1.0000 </r>
       <r>  -52.0072    1.0000 </r>
       <r>  -28.2876    1.0000 </r>
       <r>  -28.2790    1.0000 </r>
       <r>  -28.2441    1.0000 </r>
       <r>  -28.2342    1.0000 </r>
       <r>  -28.1914    1.0000 </r>
       <r>  -28.1810    1.0000 </r>
       <r>  -12.6536    1.0000 </r>
       <r>  -12.2315    1.0000 </r>
       <r>  -11.7785    1.0000 </r>
       <r>  -11.6848    1.0000 </r>
       <r>    0.0647    1.0000 </r>
       <r>    0.2146    1.0000 </r>
       <r>    0.6882    1.0000 </r>
       <r>    0.7952    1.0000 </r>
       <r>    1.4101    1.0000 </r>
       <r>    1.8506    1.0000 </r>
       <r>    2.1250    1.0000 </r>
       <r>    2.3648    1.0000 </r>
       <r>    2.5013    1.0000 </r>
       <r>    3.1189    1.0000 </r>
       <r>    4.0530    1.0000 </r>
       <r>    4.3535    1.0000 </r>
       <r>    7.4682    0.0000 </r>
       <r>    7.6020    0.0000 </r>
       <r>    7.8213    0.0000 </r>
       <r>    7.9186    0.0000 </r>
       <r>    8.2445    0.0000 </r>
       <r>    8.6774    0.0000 </r>
       <r>   10.3714    0.0000 </r>
       <r>   10.5937    0.0000 </r>
       <r>   11.0534    0.0000 </r>
       <r>   11.6354    0.0000 </r>
       <r>   15.0010    0.0000 </r>
       <r>   16.2144    0.0000 </r>
      </set>
      <set comment="kpoint 10">
       <r>  -52.0149    1.0000 </r>
       <r>  -52.0044    1.0000 </r>
       <r>  -28.3273    1.0000 </r>
       <r>  -28.2806    1.0000 </r>
       <r>  -28.2418    1.0000 </r>
       <r>  -28.2093    1.0000 </r>
       <r>  -28.1833    1.0000 </r>
       <r>  -28.1728    1.0000 </r>
       <r>  -12.8969    1.0000 </r>
       <r>  -12.0732    1.0000 </r>
       <r>  -11.7564    1.0000 </r>
       <r>  -11.5753    1.0000 </r>
       <r>   -0.4583    1.0000 </r>
       <r>    0.2106    1.0000 </r>
       <r>    0.3811    1.0000 </r>
       <r>    0.8676    1.0000 </r>
       <r>    1.1141    1.0000 </r>
       <r>    1.9750    1.0000 </r>
       <r>    2.4157    1.0000 </r>
       <r>    2.7242    1.0000 </r>
       <r>    2.8666    1.0000 </r>
       <r>    3.8097    1.0000 </r>
       <r>    3.8255    1.0000 </r>
       <r>    4.4233    1.0000 </r>
       <r>    7.1448    0.0000 </r>
       <r>    7.2901    0.0000 </r>
       <r>    7.6164    0.0000 </r>
       <r>    7.9459    0.0000 </r>
       <r>    7.9753    0.0000 </r>
       <r>    9.0002    0.0000 </r>
       <r>    9.9969    0.0000 </r>
       <r>   10.7244    0.0000 </r>
       <r>   11.2113    0.0000 </r>
       <r>   11.9663    0.0000 </r>
       <r>   14.3255    0.0000 </r>
       <r>   17.1787    0.0000 </r>
      </set>
      <set comment="kpoint 11">
       <r>  -52.0117    1.0000 </r>
       <r>  -52.0076    1.0000 </r>
       <r>  -28.3183    1.0000 </r>
       <r>  -28.2880    1.0000 </r>
       <r>  -28.2376    1.0000 </r>
       <r>  -28.2110    1.0000 </r>
       <r>  -28.1865    1.0000 </r>
       <r>  -28.1766    1.0000 </r>
       <r>  -12.6285    1.0000 </r>
       <r>  -12.2937    1.0000 </r>
       <r>  -11.7594    1.0000 </r>
       <r>  -11.6548    1.0000 </r>
       <r>   -0.2571    1.0000 </r>
       <r>    0.1636    1.0000 </r>
       <r>    0.5555    1.0000 </r>
       <r>    0.7376    1.0000 </r>
       <r>    1.5936    1.0000 </r>
       <r>    2.0765    1.0000 </r>
       <r>    2.3291    1.0000 </r>
       <r>    2.5529    1.0000 </r>
       <r>    2.8343    1.0000 </r>
       <r>    3.2181    1.0000 </r>
       <r>    3.7983    1.0000 </r>
       <r>    4.0825    1.0000 </r>
       <r>    7.3235    0.0000 </r>
       <r>    7.5214    0.0000 </r>
       <r>    7.6249    0.0000 </r>
       <r>    7.9465    0.0000 </r>
       <r>    8.2677    0.0000 </r>
       <r>    8.6620    0.0000 </r>
       <r>   10.4459    0.0000 </r>
       <r>   10.7169    0.0000 </r>
       <r>   11.1248    0.0000 </r>
       <r>   11.4883    0.0000 </r>
       <r>   15.3173    0.0000 </r>
       <r>   16.4157    0.0000 </r>
      </set>
      <set comment="kpoint 12">
       <r>  -52.0105    1.0000 </r>
       <r>  -52.0088    1.0000 </r>
       <r>  -28.3338    1.0000 </r>
       <r>  -28.3220    1.0000 </r>
       <r>  -28.2137    1.0000 </r>
       <r>  -28.2053    1.0000 </r>
       <r>  -28.1757    1.0000 </r>
       <r>  -28.1689    1.0000 </r>
       <r>  -12.5502    1.0000 </r>
       <r>  -12.4260    1.0000 </r>
       <r>  -11.6949    1.0000 </r>
       <r>  -11.6441    1.0000 </r>
       <r>   -0.4407    1.0000 </r>
       <r>   -0.2470    1.0000 </r>
       <r>    0.5151    1.0000 </r>
       <r>    0.5940    1.0000 </r>
       <r>    2.1318    1.0000 </r>
       <r>    2.4974    1.0000 </r>
       <r>    2.7993    1.0000 </r>
       <r>    2.8781    1.0000 </r>
       <r>    2.9474    1.0000 </r>
       <r>    3.3208    1.0000 </r>
       <r>    3.3529    1.0000 </r>
       <r>    3.6478    1.0000 </r>
       <r>    7.1149    0.0000 </r>
       <r>    7.3523    0.0000 </r>
       <r>    7.5110    0.0000 </r>
       <r>    7.6656    0.0000 </r>
       <r>    8.4304    0.0000 </r>
       <r>    8.5810    0.0000 </r>
       <r>   10.6911    0.0000 </r>
       <r>   10.8681    0.0000 </r>
       <r>   11.2073    0.0000 </r>
       <r>   11.2255    0.0000 </r>
       <r>   16.0227    0.0000 </r>
       <r>   16.5967    0.0000 </r>
      </set>
      <set comment="kpoint 13">
       <r>  -51.9979    1.0000 </r>
       <r>  -51.9868    1.0000 </r>
       <r>  -28.4097    1.0000 </r>
       <r>  -28.3910    1.0000 </r>
       <r>  -28.2693    1.0000 </r>
       <r>  -28.2693    1.0000 </r>
       <r>  -28.1696    1.0000 </r>
       <r>  -28.1696    1.0000 </r>
       <r>  -12.6136    1.0000 </r>
       <r>  -11.8282    1.0000 </r>
       <r>  -11.7485    1.0000 </r>
       <r>  -11.7485    1.0000 </r>
       <r>    0.0839    1.0000 </r>
       <r>    0.2097    1.0000 </r>
       <r>    0.7826    1.0000 </r>
       <r>    0.7826    1.0000 </r>
       <r>    0.8490    1.0000 </r>
       <r>    1.3315    1.0000 </r>
       <r>    2.1266    1.0000 </r>
       <r>    3.1442    1.0000 </r>
       <r>    3.1442    1.0000 </r>
       <r>    3.2056    1.0000 </r>
       <r>    3.2056    1.0000 </r>
       <r>    4.2096    1.0000 </r>
       <r>    7.1467    0.0000 </r>
       <r>    7.4915    0.0000 </r>
       <r>    7.8574    0.0000 </r>
       <r>    8.1356    0.0000 </r>
       <r>    8.1356    0.0000 </r>
       <r>    8.8473    0.0000 </r>
       <r>   10.0922    0.0000 </r>
       <r>   10.9059    0.0000 </r>
       <r>   10.9059    0.0000 </r>
       <r>   11.4082    0.0000 </r>
       <r>   14.8993    0.0000 </r>
       <r>   18.9743    0.0000 </r>
      </set>
      <set comment="kpoint 14">
       <r>  -51.9969    1.0000 </r>
       <r>  -51.9878    1.0000 </r>
       <r>  -28.4139    1.0000 </r>
       <r>  -28.3978    1.0000 </r>
       <r>  -28.2587    1.0000 </r>
       <r>  -28.2556    1.0000 </r>
       <r>  -28.1779    1.0000 </r>
       <r>  -28.1758    1.0000 </r>
       <r>  -12.5363    1.0000 </r>
       <r>  -11.8893    1.0000 </r>
       <r>  -11.7686    1.0000 </r>
       <r>  -11.7571    1.0000 </r>
       <r>    0.1628    1.0000 </r>
       <r>    0.3812    1.0000 </r>
       <r>    0.5143    1.0000 </r>
       <r>    0.7200    1.0000 </r>
       <r>    1.2780    1.0000 </r>
       <r>    1.5018    1.0000 </r>
       <r>    1.6772    1.0000 </r>
       <r>    2.8990    1.0000 </r>
       <r>    2.9527    1.0000 </r>
       <r>    3.3312    1.0000 </r>
       <r>    3.3740    1.0000 </r>
       <r>    4.2636    1.0000 </r>
       <r>    7.0311    0.0000 </r>
       <r>    7.6976    0.0000 </r>
       <r>    7.9399    0.0000 </r>
       <r>    7.9421    0.0000 </r>
       <r>    8.2909    0.0000 </r>
       <r>    8.7915    0.0000 </r>
       <r>   10.1597    0.0000 </r>
       <r>   10.3992    0.0000 </r>
       <r>   10.9615    0.0000 </r>
       <r>   11.7796    0.0000 </r>
       <r>   15.1727    0.0000 </r>
       <r>   18.2095    0.0000 </r>
      </set>
      <set comment="kpoint 15">
       <r>  -51.9941    1.0000 </r>
       <r>  -51.9906    1.0000 </r>
       <r>  -28.4171    1.0000 </r>
       <r>  -28.4105    1.0000 </r>
       <r>  -28.2341    1.0000 </r>
       <r>  -28.2281    1.0000 </r>
       <r>  -28.1985    1.0000 </r>
       <r>  -28.1934    1.0000 </r>
       <r>  -12.3336    1.0000 </r>
       <r>  -12.0842    1.0000 </r>
       <r>  -11.7801    1.0000 </r>
       <r>  -11.7731    1.0000 </r>
       <r>    0.4141    1.0000 </r>
       <r>    0.4759    1.0000 </r>
       <r>    0.5640    1.0000 </r>
       <r>    0.7492    1.0000 </r>
       <r>    1.1249    1.0000 </r>
       <r>    1.4073    1.0000 </r>
       <r>    1.9535    1.0000 </r>
       <r>    2.4246    1.0000 </r>
       <r>    2.7403    1.0000 </r>
       <r>    3.2200    1.0000 </r>
       <r>    3.7704    1.0000 </r>
       <r>    4.1238    1.0000 </r>
       <r>    7.1367    0.0000 </r>
       <r>    7.5359    0.0000 </r>
       <r>    8.0372    0.0000 </r>
       <r>    8.0857    0.0000 </r>
       <r>    8.5259    0.0000 </r>
       <r>    8.6487    0.0000 </r>
       <r>    9.9556    0.0000 </r>
       <r>   10.0087    0.0000 </r>
       <r>   11.3804    0.0000 </r>
       <r>   11.8146    0.0000 </r>
       <r>   15.9715    0.0000 </r>
       <r>   17.0787    0.0000 </r>
      </set>
      <set comment="kpoint 16">
       <r>  -51.9959    1.0000 </r>
       <r>  -51.9884    1.0000 </r>
       <r>  -28.4151    1.0000 </r>
       <r>  -28.3990    1.0000 </r>
       <r>  -28.2723    1.0000 </r>
       <r>  -28.2290    1.0000 </r>
       <r>  -28.1975    1.0000 </r>
       <r>  -28.1680    1.0000 </r>
       <r>  -12.4664    1.0000 </r>
       <r>  -11.9280    1.0000 </r>
       <r>  -11.7862    1.0000 </r>
       <r>  -11.7732    1.0000 </r>
       <r>    0.0996    1.0000 </r>
       <r>    0.3655    1.0000 </r>
       <r>    0.5599    1.0000 </r>
       <r>    0.7154    1.0000 </r>
       <r>    1.2510    1.0000 </r>
       <r>    1.6423    1.0000 </r>
       <r>    1.7877    1.0000 </r>
       <r>    2.5823    1.0000 </r>
       <r>    3.0664    1.0000 </r>
       <r>    3.1950    1.0000 </r>
       <r>    3.5877    1.0000 </r>
       <r>    4.2753    1.0000 </r>
       <r>    7.0142    0.0000 </r>
       <r>    7.6360    0.0000 </r>
       <r>    7.9091    0.0000 </r>
       <r>    8.1901    0.0000 </r>
       <r>    8.1912    0.0000 </r>
       <r>    8.7487    0.0000 </r>
       <r>    9.9200    0.0000 </r>
       <r>   10.6447    0.0000 </r>
       <r>   10.9015    0.0000 </r>
       <r>   11.8127    0.0000 </r>
       <r>   15.4191    0.0000 </r>
       <r>   18.0763    0.0000 </r>
      </set>
      <set comment="kpoint 17">
       <r>  -51.9936    1.0000 </r>
       <r>  -51.9907    1.0000 </r>
       <r>  -28.4135    1.0000 </r>
       <r>  -28.4061    1.0000 </r>
       <r>  -28.2617    1.0000 </r>
       <r>  -28.2343    1.0000 </r>
       <r>  -28.1932    1.0000 </r>
       <r>  -28.1741    1.0000 </r>
       <r>  -12.2890    1.0000 </r>
       <r>  -12.0770    1.0000 </r>
       <r>  -11.8033    1.0000 </r>
       <r>  -11.7937    1.0000 </r>
       <r>    0.2022    1.0000 </r>
       <r>    0.3249    1.0000 </r>
       <r>    0.4284    1.0000 </r>
       <r>    0.6276    1.0000 </r>
       <r>    1.2562    1.0000 </r>
       <r>    1.6630    1.0000 </r>
       <r>    2.1976    1.0000 </r>
       <r>    2.6025    1.0000 </r>
       <r>    2.9038    1.0000 </r>
       <r>    3.1266    1.0000 </r>
       <r>    3.7300    1.0000 </r>
       <r>    4.0768    1.0000 </r>
       <r>    7.2189    0.0000 </r>
       <r>    7.6106    0.0000 </r>
       <r>    7.8398    0.0000 </r>
       <r>    8.0745    0.0000 </r>
       <r>    8.3662    0.0000 </r>
       <r>    8.5681    0.0000 </r>
       <r>    9.9814    0.0000 </r>
       <r>   10.4081    0.0000 </r>
       <r>   11.2502    0.0000 </r>
       <r>   11.6755    0.0000 </r>
       <r>   16.1106    0.0000 </r>
       <r>   17.0964    0.0000 </r>
      </set>
      <set comment="kpoint 18">
       <r>  -51.9924    1.0000 </r>
       <r>  -51.9915    1.0000 </r>
       <r>  -28.4050    1.0000 </r>
       <r>  -28.4005    1.0000 </r>
       <r>  -28.2773    1.0000 </r>
       <r>  -28.2643    1.0000 </r>
       <r>  -28.1725    1.0000 </r>
       <r>  -28.1655    1.0000 </r>
       <r>  -12.1825    1.0000 </r>
       <r>  -12.0912    1.0000 </r>
       <r>  -11.8449    1.0000 </r>
       <r>  -11.8314    1.0000 </r>
       <r>    0.0833    1.0000 </r>
       <r>    0.1817    1.0000 </r>
       <r>    0.1859    1.0000 </r>
       <r>    0.2960    1.0000 </r>
       <r>    1.6467    1.0000 </r>
       <r>    1.8528    1.0000 </r>
       <r>    2.6157    1.0000 </r>
       <r>    2.7773    1.0000 </r>
       <r>    3.0729    1.0000 </r>
       <r>    3.1817    1.0000 </r>
       <r>    3.6247    1.0000 </r>
       <r>    3.8860    1.0000 </r>
       <r>    7.5147    0.0000 </r>
       <r>    7.6520    0.0000 </r>
       <r>    7.8070    0.0000 </r>
       <r>    7.8970    0.0000 </r>
       <r>    8.0564    0.0000 </r>
       <r>    8.3076    0.0000 </r>
       <r>   10.4133    0.0000 </r>
       <r>   10.8913    0.0000 </r>
       <r>   10.9164    0.0000 </r>
       <r>   11.3348    0.0000 </r>
       <r>   16.4718    0.0000 </r>
       <r>   16.9149    0.0000 </r>
      </set>
      <set comment="kpoint 19">
       <r>  -51.9803    1.0000 </r>
       <r>  -51.9767    1.0000 </r>
       <r>  -28.5541    1.0000 </r>
       <r>  -28.5478    1.0000 </r>
       <r>  -28.2152    1.0000 </r>
       <r>  -28.2152    1.0000 </r>
       <r>  -28.1755    1.0000 </r>
       <r>  -28.1755    1.0000 </r>
       <r>  -12.0679    1.0000 </r>
       <r>  -11.9215    1.0000 </r>
       <r>  -11.9215    1.0000 </r>
       <r>  -11.7752    1.0000 </r>
       <r>    0.3802    1.0000 </r>
       <r>    0.4149    1.0000 </r>
       <r>    1.0524    1.0000 </r>
       <r>    1.0524    1.0000 </r>
       <r>    1.1147    1.0000 </r>
       <r>    1.4000    1.0000 </r>
       <r>    1.8901    1.0000 </r>
       <r>    2.2781    1.0000 </r>
       <r>    2.2781    1.0000 </r>
       <r>    3.1171    1.0000 </r>
       <r>    3.4312    1.0000 </r>
       <r>    3.4312    1.0000 </r>
       <r>    7.5539    0.0000 </r>
       <r>    7.8652    0.0000 </r>
       <r>    8.1720    0.0000 </r>
       <r>    8.2013    0.0000 </r>
       <r>    8.4981    0.0000 </r>
       <r>    8.4981    0.0000 </r>
       <r>   10.3422    0.0000 </r>
       <r>   10.5931    0.0000 </r>
       <r>   10.8958    0.0000 </r>
       <r>   10.8958    0.0000 </r>
       <r>   16.5914    0.0000 </r>
       <r>   18.1486    0.0000 </r>
      </set>
      <set comment="kpoint 20">
       <r>  -51.9800    1.0000 </r>
       <r>  -51.9766    1.0000 </r>
       <r>  -28.5577    1.0000 </r>
       <r>  -28.5525    1.0000 </r>
       <r>  -28.2102    1.0000 </r>
       <r>  -28.2084    1.0000 </r>
       <r>  -28.1782    1.0000 </r>
       <r>  -28.1766    1.0000 </r>
       <r>  -12.1796    1.0000 </r>
       <r>  -12.0697    1.0000 </r>
       <r>  -11.7739    1.0000 </r>
       <r>  -11.6465    1.0000 </r>
       <r>    0.2350    1.0000 </r>
       <r>    0.3279    1.0000 </r>
       <r>    0.6130    1.0000 </r>
       <r>    0.8647    1.0000 </r>
       <r>    1.3697    1.0000 </r>
       <r>    1.6175    1.0000 </r>
       <r>    2.1315    1.0000 </r>
       <r>    2.4731    1.0000 </r>
       <r>    2.4803    1.0000 </r>
       <r>    3.2582    1.0000 </r>
       <r>    3.3350    1.0000 </r>
       <r>    3.4415    1.0000 </r>
       <r>    7.2538    0.0000 </r>
       <r>    7.7499    0.0000 </r>
       <r>    7.9351    0.0000 </r>
       <r>    8.1639    0.0000 </r>
       <r>    8.6200    0.0000 </r>
       <r>    8.6679    0.0000 </r>
       <r>   10.0932    0.0000 </r>
       <r>   10.1506    0.0000 </r>
       <r>   11.2696    0.0000 </r>
       <r>   11.5151    0.0000 </r>
       <r>   16.6153    0.0000 </r>
       <r>   17.9703    0.0000 </r>
      </set>
      <set comment="kpoint 21">
       <r>  -51.9788    1.0000 </r>
       <r>  -51.9775    1.0000 </r>
       <r>  -28.5625    1.0000 </r>
       <r>  -28.5605    1.0000 </r>
       <r>  -28.1991    1.0000 </r>
       <r>  -28.1954    1.0000 </r>
       <r>  -28.1850    1.0000 </r>
       <r>  -28.1814    1.0000 </r>
       <r>  -12.2535    1.0000 </r>
       <r>  -12.2139    1.0000 </r>
       <r>  -11.6145    1.0000 </r>
       <r>  -11.5632    1.0000 </r>
       <r>   -0.0674    1.0000 </r>
       <r>    0.0035    1.0000 </r>
       <r>    0.7078    1.0000 </r>
       <r>    0.8505    1.0000 </r>
       <r>    1.4341    1.0000 </r>
       <r>    1.7958    1.0000 </r>
       <r>    2.1042    1.0000 </r>
       <r>    2.5382    1.0000 </r>
       <r>    2.9675    1.0000 </r>
       <r>    3.0049    1.0000 </r>
       <r>    3.5429    1.0000 </r>
       <r>    3.8871    1.0000 </r>
       <r>    6.8437    0.0000 </r>
       <r>    7.0881    0.0000 </r>
       <r>    8.0583    0.0000 </r>
       <r>    8.1386    0.0000 </r>
       <r>    8.7473    0.0000 </r>
       <r>    8.7591    0.0000 </r>
       <r>    9.8156    0.0000 </r>
       <r>    9.8963    0.0000 </r>
       <r>   11.8236    0.0000 </r>
       <r>   11.9725    0.0000 </r>
       <r>   16.8729    0.0000 </r>
       <r>   17.4570    0.0000 </r>
      </set>
      <set comment="kpoint 22">
       <r>  -51.9795    1.0000 </r>
       <r>  -51.9769    1.0000 </r>
       <r>  -28.5609    1.0000 </r>
       <r>  -28.5514    1.0000 </r>
       <r>  -28.2166    1.0000 </r>
       <r>  -28.1962    1.0000 </r>
       <r>  -28.1838    1.0000 </r>
       <r>  -28.1754    1.0000 </r>
       <r>  -12.2476    1.0000 </r>
       <r>  -11.9542    1.0000 </r>
       <r>  -11.8854    1.0000 </r>
       <r>  -11.5727    1.0000 </r>
       <r>    0.0213    1.0000 </r>
       <r>    0.5592    1.0000 </r>
       <r>    0.6046    1.0000 </r>
       <r>    0.6471    1.0000 </r>
       <r>    0.9355    1.0000 </r>
       <r>    2.0876    1.0000 </r>
       <r>    2.2040    1.0000 </r>
       <r>    2.4507    1.0000 </r>
       <r>    2.5857    1.0000 </r>
       <r>    3.2159    1.0000 </r>
       <r>    3.4475    1.0000 </r>
       <r>    3.6731    1.0000 </r>
       <r>    7.0673    0.0000 </r>
       <r>    7.8452    0.0000 </r>
       <r>    7.9676    0.0000 </r>
       <r>    8.0953    0.0000 </r>
       <r>    8.2641    0.0000 </r>
       <r>    8.8728    0.0000 </r>
       <r>    9.7597    0.0000 </r>
       <r>   10.7127    0.0000 </r>
       <r>   10.8901    0.0000 </r>
       <r>   11.8284    0.0000 </r>
       <r>   16.5937    0.0000 </r>
       <r>   17.9871    0.0000 </r>
      </set>
      <set comment="kpoint 23">
       <r>  -51.9786    1.0000 </r>
[...]
        <r>  0.0065  0.0010  0.0001  0.0010  0.0000  0.0000  0.0000  0.0000  0.0000 </r>
        <r>  0.0000  0.0000  0.0001  0.0000  0.0000  0.0000  0.0000  0.0000  0.0000 </r>
        <r>  0.0000  0.0006  0.0046  0.0006  0.0000  0.0000  0.0000  0.0000  0.0000 </r>
        <r>  0.0000  0.0000  0.9536  0.0000  0.0000  0.0000  0.0000  0.0000  0.0000 </r>
       </set>
       <set comment="band 5">
        <r>  0.0000  0.0000  0.0000  0.0000  0.0000  0.0000  0.0000  0.0000  0.0000 </r>
        <r>  0.0026  0.0004  0.0006  0.0004  0.0000  0.0000  0.0000  0.0000  0.0000 </r>
        <r>  0.0026  0.0004  0.0006  0.0004  0.0000  0.0000  0.0000  0.0000  0.0000 </r>
        <r>  0.0000  0.0000  0.0000  0.0000  0.0000  0.0000  0.0000  0.0000  0.0000 </r>
        <r>  0.0000  0.3442  0.0000  0.3442  0.0000  0.0000  0.0000  0.0000  0.0000 </r>
        <r>  0.0000  0.1435  0.0000  0.1435  0.0000  0.0000  0.0000  0.0000  0.0000 </r>
       </set>
       <set comment="band 6">
        <r>  0.0021  0.0004  0.0006  0.0004  0.0000  0.0000  0.0000  0.0000  0.0000 </r>
        <r>  0.0000  0.0000  0.0000  0.0000  0.0000  0.0000  0.0000  0.0000  0.0000 </r>
        <r>  0.0000  0.0000  0.0000  0.0000  0.0000  0.0000  0.0000  0.0000  0.0000 </r>
        <r>  0.0021  0.0004  0.0006  0.0004  0.0000  0.0000  0.0000  0.0000  0.0000 </r>
        <r>  0.0000  0.1463  0.0084  0.1463  0.0000  0.0000  0.0000  0.0000  0.0000 </r>
        <r>  0.0000  0.3374  0.0005  0.3374  0.0000  0.0000  0.0000  0.0000  0.0000 </r>
       </set>
       <set comment="band 7">
        <r>  0.0002  0.0003  0.0013  0.0003  0.0000  0.0000  0.0000  0.0000  0.0000 </r>
        <r>  0.0000  0.0000  0.0000  0.0000  0.0000  0.0000  0.0000  0.0000  0.0000 </r>
        <r>  0.0000  0.0000  0.0000  0.0000  0.0000  0.0000  0.0000  0.0000  0.0000 </r>
        <r>  0.0002  0.0003  0.0013  0.0003  0.0000  0.0000  0.0000  0.0000  0.0000 </r>
        <r>  0.0000  0.3432  0.0030  0.3432  0.0000  0.0000  0.0000  0.0000  0.0000 </r>
        <r>  0.0000  0.1453  0.0009  0.1453  0.0000  0.0000  0.0000  0.0000  0.0000 </r>
       </set>
       <set comment="band 8">
        <r>  0.0000  0.0000  0.0000  0.0000  0.0000  0.0000  0.0000  0.0000  0.0000 </r>
        <r>  0.0002  0.0003  0.0014  0.0003  0.0000  0.0000  0.0000  0.0000  0.0000 </r>
        <r>  0.0002  0.0003  0.0014  0.0003  0.0000  0.0000  0.0000  0.0000  0.0000 </r>
        <r>  0.0000  0.0000  0.0000  0.0000  0.0000  0.0000  0.0000  0.0000  0.0000 </r>
        <r>  0.0000  0.1438  0.0000  0.1438  0.0000  0.0000  0.0000  0.0000  0.0000 </r>
        <r>  0.0000  0.3466  0.0000  0.3466  0.0000  0.0000  0.0000  0.0000  0.0000 </r>
       </set>
       <set comment="band 9">
        <r>  0.3882  0.0002  0.0000  0.0002  0.0000  0.0000  0.0000  0.0000  0.0000 </r>
        <r>  0.0048  0.0000  0.0000  0.0000  0.0000  0.0000  0.0000  0.0000  0.0000 </r>
        <r>  0.0048  0.0000  0.0000  0.0000  0.0000  0.0000  0.0000  0.0000  0.0000 </r>
        <r>  0.3882  0.0002  0.0000  0.0002  0.0000  0.0000  0.0000  0.0000  0.0000 </r>
        <r>  0.0000  0.0008  0.0023  0.0008  0.0003  0.0269  0.0001  0.0269  0.0000 </r>
        <r>  0.0045  0.0036  0.0006  0.0036  0.0067  0.0000  0.0022  0.0000  0.0000 </r>
       </set>
       <set comment="band 10">
        <r>  0.0000  0.0000  0.0000  0.0000  0.0000  0.0000  0.0000  0.0000  0.0000 </r>
        <r>  0.3942  0.0003  0.0000  0.0003  0.0000  0.0000  0.0000  0.0000  0.0000 </r>
        <r>  0.3942  0.0003  0.0000  0.0003  0.0000  0.0000  0.0000  0.0000  0.0000 </r>
        <r>  0.0000  0.0000  0.0000  0.0000  0.0000  0.0000  0.0000  0.0000  0.0000 </r>
        <r>  0.0000  0.0085  0.0000  0.0085  0.0000  0.0000  0.0000  0.0000  0.0000 </r>
        <r>  0.0000  0.0009  0.0000  0.0009  0.0000  0.0298  0.0000  0.0298  0.0000 </r>
       </set>
       <set comment="band 11">
        <r>  0.0192  0.0000  0.0000  0.0000  0.0000  0.0000  0.0000  0.0000  0.0000 </r>
        <r>  0.3732  0.0000  0.0001  0.0000  0.0000  0.0000  0.0000  0.0000  0.0000 </r>
        <r>  0.3732  0.0000  0.0001  0.0000  0.0000  0.0000  0.0000  0.0000  0.0000 </r>
        <r>  0.0192  0.0000  0.0000  0.0000  0.0000  0.0000  0.0000  0.0000  0.0000 </r>
        <r>  0.0078  0.0000  0.0023  0.0000  0.0120  0.0001  0.0035  0.0001  0.0000 </r>
        <r>  0.0006  0.0000  0.0437  0.0000  0.0024  0.0000  0.0013  0.0000  0.0000 </r>
       </set>
       <set comment="band 12">
        <r>  0.3794  0.0001  0.0001  0.0001  0.0000  0.0000  0.0000  0.0000  0.0000 </r>
        <r>  0.0144  0.0000  0.0000  0.0000  0.0000  0.0000  0.0000  0.0000  0.0000 </r>
        <r>  0.0144  0.0000  0.0000  0.0000  0.0000  0.0000  0.0000  0.0000  0.0000 </r>
        <r>  0.3794  0.0001  0.0001  0.0001  0.0000  0.0000  0.0000  0.0000  0.0000 </r>
        <r>  0.0007  0.0001  0.0425  0.0001  0.0021  0.0021  0.0012  0.0021  0.0000 </r>
        <r>  0.0032  0.0050  0.0019  0.0050  0.0051  0.0000  0.0013  0.0000  0.0000 </r>
       </set>
       <set comment="band 13">
        <r>  0.0003  0.0025  0.1434  0.0025  0.0000  0.0000  0.0000  0.0000  0.0000 </r>
        <r>  0.0000  0.0412  0.0001  0.0412  0.0000  0.0000  0.0000  0.0000  0.0000 </r>
        <r>  0.0000  0.0412  0.0001  0.0412  0.0000  0.0000  0.0000  0.0000  0.0000 </r>
        <r>  0.0003  0.0025  0.1434  0.0025  0.0000  0.0000  0.0000  0.0000  0.0000 </r>
        <r>  0.0394  0.0087  0.0004  0.0087  0.0177  0.0042  0.0023  0.0042  0.0000 </r>
        <r>  0.0000  0.0004  0.0049  0.0004  0.0017  0.0461  0.0020  0.0461  0.0000 </r>
       </set>
       <set comment="band 14">
        <r>  0.0000  0.0512  0.0000  0.0512  0.0000  0.0000  0.0000  0.0000  0.0000 </r>
        <r>  0.0000  0.0038  0.1171  0.0038  0.0000  0.0000  0.0000  0.0000  0.0000 </r>
        <r>  0.0000  0.0038  0.1171  0.0038  0.0000  0.0000  0.0000  0.0000  0.0000 </r>
        <r>  0.0000  0.0512  0.0000  0.0512  0.0000  0.0000  0.0000  0.0000  0.0000 </r>
        <r>  0.0000  0.0013  0.0000  0.0013  0.0000  0.0581  0.0000  0.0581  0.0001 </r>
        <r>  0.0000  0.0199  0.0000  0.0199  0.0000  0.0085  0.0000  0.0085  0.0031 </r>
       </set>
       <set comment="band 15">
        <r>  0.0003  0.0640  0.0095  0.0640  0.0000  0.0000  0.0000  0.0000  0.0000 </r>
        <r>  0.0006  0.0170  0.0989  0.0170  0.0000  0.0000  0.0000  0.0000  0.0000 </r>
        <r>  0.0006  0.0170  0.0989  0.0170  0.0000  0.0000  0.0000  0.0000  0.0000 </r>
        <r>  0.0003  0.0640  0.0095  0.0640  0.0000  0.0000  0.0000  0.0000  0.0000 </r>
        <r>  0.0040  0.0005  0.0363  0.0005  0.0055  0.0095  0.0174  0.0095  0.0000 </r>
        <r>  0.0875  0.0002  0.0047  0.0002  0.0000  0.0002  0.0106  0.0002  0.0000 </r>
       </set>
       <set comment="band 16">
        <r>  0.0005  0.0133  0.0565  0.0133  0.0000  0.0000  0.0000  0.0000  0.0000 </r>
        <r>  0.0000  0.0835  0.0186  0.0835  0.0000  0.0000  0.0000  0.0000  0.0000 </r>
        <r>  0.0000  0.0835  0.0186  0.0835  0.0000  0.0000  0.0000  0.0000  0.0000 </r>
        <r>  0.0005  0.0133  0.0565  0.0133  0.0000  0.0000  0.0000  0.0000  0.0000 </r>
        <r>  0.0440  0.0067  0.0065  0.0067  0.0208  0.0004  0.0125  0.0004  0.0000 </r>
        <r>  0.0064  0.0009  0.0498  0.0009  0.0000  0.0069  0.0169  0.0069  0.0000 </r>
       </set>
       <set comment="band 17">
        <r>  0.0014  0.0619  0.0191  0.0619  0.0000  0.0000  0.0000  0.0000  0.0000 </r>
        <r>  0.0000  0.0045  0.1170  0.0045  0.0000  0.0000  0.0000  0.0000  0.0000 </r>
        <r>  0.0000  0.0045  0.1170  0.0045  0.0000  0.0000  0.0000  0.0000  0.0000 </r>
        <r>  0.0014  0.0619  0.0191  0.0619  0.0000  0.0000  0.0000  0.0000  0.0000 </r>
        <r>  0.0002  0.0001  0.0072  0.0001  0.0198  0.0236  0.0000  0.0236  0.0000 </r>
        <r>  0.0063  0.0008  0.0000  0.0008  0.2036  0.0004  0.0217  0.0004  0.0000 </r>
       </set>
       <set comment="band 18">
        <r>  0.0000  0.0104  0.1514  0.0104  0.0000  0.0000  0.0000  0.0000  0.0000 </r>
        <r>  0.0011  0.0424  0.0215  0.0424  0.0000  0.0000  0.0000  0.0000  0.0000 </r>
        <r>  0.0011  0.0424  0.0215  0.0424  0.0000  0.0000  0.0000  0.0000  0.0000 </r>
        <r>  0.0000  0.0104  0.1514  0.0104  0.0000  0.0000  0.0000  0.0000  0.0000 </r>
        <r>  0.0123  0.0059  0.0004  0.0059  0.1626  0.0019  0.0173  0.0019  0.0000 </r>
        <r>  0.0004  0.0011  0.0105  0.0011  0.0260  0.0030  0.0001  0.0030  0.0000 </r>
       </set>
       <set comment="band 19">
        <r>  0.0000  0.0051  0.0000  0.0051  0.0000  0.0000  0.0000  0.0000  0.0000 </r>
        <r>  0.0039  0.1462  0.0003  0.1462  0.0000  0.0000  0.0000  0.0000  0.0000 </r>
        <r>  0.0039  0.1462  0.0003  0.1462  0.0000  0.0000  0.0000  0.0000  0.0000 </r>
        <r>  0.0000  0.0051  0.0000  0.0051  0.0000  0.0000  0.0000  0.0000  0.0000 </r>
        <r>  0.0000  0.0229  0.0000  0.0229  0.0000  0.0045  0.0000  0.0045  0.0000 </r>
        <r>  0.0000  0.0010  0.0000  0.0010  0.0000  0.0912  0.0000  0.0912  0.0004 </r>
       </set>
       <set comment="band 20">
        <r>  0.0023  0.1388  0.0128  0.1388  0.0000  0.0000  0.0000  0.0000  0.0000 </r>
        <r>  0.0000  0.0051  0.0113  0.0051  0.0000  0.0000  0.0000  0.0000  0.0000 </r>
        <r>  0.0000  0.0051  0.0113  0.0051  0.0000  0.0000  0.0000  0.0000  0.0000 </r>
        <r>  0.0023  0.1388  0.0128  0.1388  0.0000  0.0000  0.0000  0.0000  0.0000 </r>
        <r>  0.0000  0.0023  0.0214  0.0023  0.0073  0.0528  0.0030  0.0528  0.0000 </r>
        <r>  0.0041  0.0209  0.0000  0.0209  0.0051  0.0034  0.0000  0.0034  0.0000 </r>
       </set>
       <set comment="band 21">
        <r>  0.0000  0.0038  0.0000  0.0038  0.0000  0.0000  0.0000  0.0000  0.0000 </r>
        <r>  0.0003  0.1467  0.0110  0.1467  0.0000  0.0000  0.0000  0.0000  0.0000 </r>
        <r>  0.0003  0.1467  0.0110  0.1467  0.0000  0.0000  0.0000  0.0000  0.0000 </r>
        <r>  0.0000  0.0038  0.0000  0.0038  0.0000  0.0000  0.0000  0.0000  0.0000 </r>
        <r>  0.0000  0.0000  0.0000  0.0000  0.0000  0.0000  0.0000  0.0000  0.0973 </r>
        <r>  0.0000  0.0009  0.0000  0.0009  0.0000  0.0002  0.0000  0.0002  0.0129 </r>
       </set>
       <set comment="band 22">
        <r>  0.0000  0.1493  0.0000  0.1493  0.0000  0.0000  0.0000  0.0000  0.0000 </r>
        <r>  0.0000  0.0003  0.0229  0.0003  0.0000  0.0000  0.0000  0.0000  0.0000 </r>
        <r>  0.0000  0.0003  0.0229  0.0003  0.0000  0.0000  0.0000  0.0000  0.0000 </r>
        <r>  0.0000  0.1493  0.0000  0.1493  0.0000  0.0000  0.0000  0.0000  0.0000 </r>
        <r>  0.0000  0.0002  0.0000  0.0002  0.0000  0.0035  0.0000  0.0035  0.0113 </r>
        <r>  0.0000  0.0043  0.0000  0.0043  0.0000  0.0002  0.0000  0.0002  0.0812 </r>
       </set>
       <set comment="band 23">
        <r>  0.0005  0.0021  0.1953  0.0021  0.0000  0.0000  0.0000  0.0000  0.0000 </r>
        <r>  0.0001  0.0814  0.0000  0.0814  0.0000  0.0000  0.0000  0.0000  0.0000 </r>
        <r>  0.0001  0.0814  0.0000  0.0814  0.0000  0.0000  0.0000  0.0000  0.0000 </r>
        <r>  0.0005  0.0021  0.1953  0.0021  0.0000  0.0000  0.0000  0.0000  0.0000 </r>
        <r>  0.0045  0.0155  0.0001  0.0155  0.0027  0.0019  0.0000  0.0019  0.0000 </r>
        <r>  0.0002  0.0007  0.0000  0.0007  0.0014  0.0155  0.0001  0.0155  0.0000 </r>
       </set>
       <set comment="band 24">
        <r>  0.0000  0.0917  0.0000  0.0917  0.0000  0.0000  0.0000  0.0000  0.0000 </r>
        <r>  0.0002  0.0131  0.1651  0.0131  0.0000  0.0000  0.0000  0.0000  0.0000 </r>
        <r>  0.0002  0.0131  0.1651  0.0131  0.0000  0.0000  0.0000  0.0000  0.0000 </r>
        <r>  0.0000  0.0917  0.0000  0.0917  0.0000  0.0000  0.0000  0.0000  0.0000 </r>
        <r>  0.0000  0.0010  0.0000  0.0010  0.0000  0.0053  0.0000  0.0053  0.0010 </r>
        <r>  0.0000  0.0126  0.0000  0.0126  0.0000  0.0009  0.0000  0.0009  0.0000 </r>
       </set>
       <set comment="band 25">
        <r>  0.0000  0.0105  0.0000  0.0105  0.0000  0.0000  0.0000  0.0000  0.0000 </r>
        <r>  0.0000  0.0011  0.0076  0.0011  0.0000  0.0000  0.0000  0.0000  0.0000 </r>
        <r>  0.0000  0.0011  0.0076  0.0011  0.0000  0.0000  0.0000  0.0000  0.0000 </r>
        <r>  0.0000  0.0105  0.0000  0.0105  0.0000  0.0000  0.0000  0.0000  0.0000 </r>
        <r>  0.0000  0.0000  0.0000  0.0000  0.0000  0.1069  0.0000  0.1069  0.0217 </r>
        <r>  0.0000  0.0024  0.0000  0.0024  0.0000  0.0008  0.0000  0.0008  0.5647 </r>
       </set>
       <set comment="band 26">
        <r>  0.0000  0.0017  0.0000  0.0017  0.0000  0.0000  0.0000  0.0000  0.0000 </r>
        <r>  0.0000  0.0258  0.0002  0.0258  0.0000  0.0000  0.0000  0.0000  0.0000 </r>
        <r>  0.0000  0.0258  0.0002  0.0258  0.0000  0.0000  0.0000  0.0000  0.0000 </r>
        <r>  0.0000  0.0017  0.0000  0.0017  0.0000  0.0000  0.0000  0.0000  0.0000 </r>
        <r>  0.0000  0.0000  0.0000  0.0000  0.0000  0.0014  0.0000  0.0014  0.7524 </r>
        <r>  0.0000  0.0000  0.0000  0.0000  0.0000  0.0001  0.0000  0.0001  0.0166 </r>
       </set>
       <set comment="band 27">
        <r>  0.0001  0.0004  0.0029  0.0004  0.0000  0.0000  0.0000  0.0000  0.0000 </r>
        <r>  0.0001  0.0228  0.0030  0.0228  0.0000  0.0000  0.0000  0.0000  0.0000 </r>
        <r>  0.0001  0.0228  0.0030  0.0228  0.0000  0.0000  0.0000  0.0000  0.0000 </r>
        <r>  0.0001  0.0004  0.0029  0.0004  0.0000  0.0000  0.0000  0.0000  0.0000 </r>
        <r>  0.0000  0.0029  0.0000  0.0029  0.0583  0.0001  0.0389  0.0001  0.0000 </r>
        <r>  0.0006  0.0000  0.0000  0.0000  0.0207  0.2499  0.1730  0.2499  0.0000 </r>
       </set>
       <set comment="band 28">
        <r>  0.0000  0.0017  0.0029  0.0017  0.0000  0.0000  0.0000  0.0000  0.0000 </r>
        <r>  0.0005  0.0011  0.0109  0.0011  0.0000  0.0000  0.0000  0.0000  0.0000 </r>
        <r>  0.0005  0.0011  0.0109  0.0011  0.0000  0.0000  0.0000  0.0000  0.0000 </r>
        <r>  0.0000  0.0017  0.0029  0.0017  0.0000  0.0000  0.0000  0.0000  0.0000 </r>
        <r>  0.0000  0.0002  0.0008  0.0002  0.0243  0.0000  0.3455  0.0000  0.0000 </r>
        <r>  0.0037  0.0001  0.0000  0.0001  0.1006  0.0176  0.3947  0.0176  0.0000 </r>
       </set>
       <set comment="band 29">
        <r>  0.0006  0.0001  0.0145  0.0001  0.0000  0.0000  0.0000  0.0000  0.0000 </r>
        <r>  0.0000  0.0109  0.0018  0.0109  0.0000  0.0000  0.0000  0.0000  0.0000 </r>
        <r>  0.0000  0.0109  0.0018  0.0109  0.0000  0.0000  0.0000  0.0000  0.0000 </r>
        <r>  0.0006  0.0001  0.0145  0.0001  0.0000  0.0000  0.0000  0.0000  0.0000 </r>
        <r>  0.0062  0.0010  0.0001  0.0010  0.0637  0.0023  0.3863  0.0023  0.0000 </r>
        <r>  0.0000  0.0001  0.0008  0.0001  0.0066  0.0902  0.2035  0.0902  0.0000 </r>
       </set>
       <set comment="band 30">
        <r>  0.0000  0.0403  0.0000  0.0403  0.0000  0.0000  0.0000  0.0000  0.0000 </r>
        <r>  0.0000  0.0005  0.0044  0.0005  0.0000  0.0000  0.0000  0.0000  0.0000 </r>
        <r>  0.0000  0.0005  0.0044  0.0005  0.0000  0.0000  0.0000  0.0000  0.0000 </r>
        <r>  0.0000  0.0403  0.0000  0.0403  0.0000  0.0000  0.0000  0.0000  0.0000 </r>
        <r>  0.0000  0.0000  0.0000  0.0000  0.0000  0.2589  0.0000  0.2589  0.0002 </r>
        <r>  0.0000  0.0032  0.0000  0.0032  0.0000  0.0008  0.0000  0.0008  0.2062 </r>
       </set>
       <set comment="band 31">
        <r>  0.0248  0.0146  0.0032  0.0146  0.0000  0.0000  0.0000  0.0000  0.0000 </r>
        <r>  0.0000  0.0002  0.0181  0.0002  0.0000  0.0000  0.0000  0.0000  0.0000 </r>
        <r>  0.0000  0.0002  0.0181  0.0002  0.0000  0.0000  0.0000  0.0000  0.0000 </r>
        <r>  0.0248  0.0146  0.0032  0.0146  0.0000  0.0000  0.0000  0.0000  0.0000 </r>
        <r>  0.0000  0.0002  0.0041  0.0002  0.0016  0.2150  0.0068  0.2150  0.0000 </r>
        <r>  0.0040  0.0019  0.0000  0.0019  0.3003  0.0013  0.0470  0.0013  0.0000 </r>
       </set>
       <set comment="band 32">
        <r>  0.0002  0.0004  0.0426  0.0004  0.0000  0.0000  0.0000  0.0000  0.0000 </r>
        <r>  0.0101  0.0254  0.0012  0.0254  0.0000  0.0000  0.0000  0.0000  0.0000 </r>
        <r>  0.0101  0.0254  0.0012  0.0254  0.0000  0.0000  0.0000  0.0000  0.0000 </r>
        <r>  0.0002  0.0004  0.0426  0.0004  0.0000  0.0000  0.0000  0.0000  0.0000 </r>
        <r>  0.0029  0.0000  0.0000  0.0000  0.5750  0.0003  0.1116  0.0003  0.0000 </r>
        <r>  0.0005  0.0000  0.0129  0.0000  0.0069  0.0052  0.0086  0.0052  0.0000 </r>
       </set>
       <set comment="band 33">
        <r>  0.0000  0.0004  0.0000  0.0004  0.0000  0.0000  0.0000  0.0000  0.0000 </r>
        <r>  0.0231  0.0357  0.0044  0.0357  0.0000  0.0000  0.0000  0.0000  0.0000 </r>
        <r>  0.0231  0.0357  0.0044  0.0357  0.0000  0.0000  0.0000  0.0000  0.0000 </r>
        <r>  0.0000  0.0004  0.0000  0.0004  0.0000  0.0000  0.0000  0.0000  0.0000 </r>
        <r>  0.0000  0.0059  0.0000  0.0059  0.0000  0.0025  0.0000  0.0025  0.0000 </r>
        <r>  0.0000  0.0003  0.0000  0.0003  0.0000  0.3680  0.0000  0.3680  0.0000 </r>
       </set>
       <set comment="band 34">
        <r>  0.0074  0.0470  0.0017  0.0470  0.0000  0.0000  0.0000  0.0000  0.0000 </r>
        <r>  0.0002  0.0008  0.0226  0.0008  0.0000  0.0000  0.0000  0.0000  0.0000 </r>
        <r>  0.0002  0.0008  0.0226  0.0008  0.0000  0.0000  0.0000  0.0000  0.0000 </r>
        <r>  0.0074  0.0470  0.0017  0.0470  0.0000  0.0000  0.0000  0.0000  0.0000 </r>
        <r>  0.0004  0.0000  0.0029  0.0000  0.0042  0.1590  0.0010  0.1590  0.0000 </r>
        <r>  0.0001  0.0021  0.0000  0.0021  0.2954  0.0003  0.0647  0.0003  0.0000 </r>
       </set>
       <set comment="band 35">
        <r>  0.0280  0.0045  0.0024  0.0045  0.0000  0.0000  0.0000  0.0000  0.0000 </r>
        <r>  0.0011  0.0049  0.0071  0.0049  0.0000  0.0000  0.0000  0.0000  0.0000 </r>
        <r>  0.0011  0.0049  0.0071  0.0049  0.0000  0.0000  0.0000  0.0000  0.0000 </r>
        <r>  0.0280  0.0045  0.0024  0.0045  0.0000  0.0000  0.0000  0.0000  0.0000 </r>
        <r>  0.0022  0.0003  0.0056  0.0003  0.0002  0.0046  0.0000  0.0046  0.0000 </r>
        <r>  0.0004  0.0193  0.0014  0.0193  0.0013  0.0004  0.0022  0.0004  0.0000 </r>
       </set>
       <set comment="band 36">
        <r>  0.0000  0.0048  0.0000  0.0048  0.0000  0.0000  0.0000  0.0000  0.0000 </r>
        <r>  0.0242  0.0094  0.0015  0.0094  0.0000  0.0000  0.0000  0.0000  0.0000 </r>
        <r>  0.0242  0.0094  0.0015  0.0094  0.0000  0.0000  0.0000  0.0000  0.0000 </r>
        <r>  0.0000  0.0048  0.0000  0.0048  0.0000  0.0000  0.0000  0.0000  0.0000 </r>
        <r>  0.0000  0.0189  0.0000  0.0189  0.0000  0.0003  0.0000  0.0003  0.0054 </r>
        <r>  0.0000  0.0005  0.0000  0.0005  0.0000  0.0048  0.0000  0.0048  0.0000 </r>
       </set>
      </set>
     </set>
    </set>
   </array>
  </projected>
 </calculation>
 <structure name="finalpos" >
  <crystal>
   <varray name="basis" >
    <v>       4.59096672      -0.00000000       0.00000000 </v>
    <v>       0.00000000       4.59096672       0.00000000 </v>
    <v>      -0.00000000      -0.00000000       2.95206776 </v>
   </varray>
   <i name="volume">     62.22065961 </i>
   <varray name="rec_basis" >
    <v>       0.21781905      -0.00000000       0.00000000 </v>
    <v>       0.00000000       0.21781905       0.00000000 </v>
    <v>      -0.00000000      -0.00000000       0.33874561 </v>
   </varray>
  </crystal>
  <varray name="positions" >
   <v>       0.69606687       0.69606687       0.50000000 </v>
   <v>       0.19606687       0.80393313      -0.00000000 </v>
   <v>       0.80393313       0.19606687       0.00000000 </v>
   <v>       0.30393313       0.30393313       0.50000000 </v>
   <v>       0.50000000       0.50000000       0.00000000 </v>
   <v>      -0.00000000      -0.00000000       0.50000000 </v>
  </varray>
 </structure>
</modeling>
