<?xml version="1.0" encoding="ISO-8859-1"?>
<modeling>
 <generator>
  <i name="program" type="string">vasp </i>
  <i name="version" type="string">5.4.4.18Apr17-6-g9f103f2a35  </i>
  <i name="subversion" type="string">(build Feb 28 2020 16:27:09) complex            parallel </i>
  <i name="platform" type="string">LinuxIFC </i>
  <i name="date" type="string">2024 09 26 </i>
  <i name="time" type="string">20:19:03 </i>
 </generator>
 <incar>
  <i type="string" name="PREC">accurate</i>
  <i type="string" name="ALGO"> Normal</i>
  <i type="int" name="IBRION">    -1</i>
  <i name="EDIFF">      0.00000001</i>
  <i type="int" name="NSW">     0</i>
  <i name="ENCUT">    400.00000000</i>
  <i type="logical" name="LREAL"> F  </i>
  <i type="int" name="ISMEAR">     0</i>
  <i name="SIGMA">      0.01000000</i>
  <i type="logical" name="LWAVE"> F  </i>
  <i type="logical" name="LCHARG"> T  </i>
  <i type="int" name="LORBIT">    11</i>
  <v type="int" name="KPOINT_BSE">    -1     0     0     0</v>
 </incar>
 <structure name="primitive_cell" >
  <crystal>
   <varray name="basis" >
    <v>       4.59096672       0.00000000       0.00000000 </v>
    <v>       0.00000000       4.59096672       0.00000000 </v>
    <v>       0.00000000       0.00000000       2.95206776 </v>
   </varray>
   <i name="volume">     62.22065961 </i>
   <varray name="rec_basis" >
    <v>       0.21781905      -0.00000000       0.00000000 </v>
    <v>       0.00000000       0.21781905       0.00000000 </v>
    <v>      -0.00000000      -0.00000000       0.33874561 </v>
   </varray>
  </crystal>
  <varray name="positions" >
   <v>      -0.30393313      -0.30393313      -0.50000000 </v>
   <v>      -0.50000000      -0.50000000       0.00000000 </v>
   <v>       0.00000000       0.00000000      -0.50000000 </v>
   <v>       0.30393313       0.30393313      -0.50000000 </v>
   <v>       0.19606687      -0.19606687       0.00000000 </v>
   <v>      -0.19606687       0.19606687       0.00000000 </v>
  </varray>
 </structure>
 <varray name="primitive_index" >
  <v type="int" >        1 </v>
  <v type="int" >        5 </v>
  <v type="int" >        6 </v>
  <v type="int" >        4 </v>
  <v type="int" >        2 </v>
  <v type="int" >        3 </v>
 </varray>
 <kpoints>
  <generation param="Gamma">
   <v type="int" name="divisions">       5        5        7 </v>
   <v name="usershift">      0.00000000       0.00000000       0.00000000 </v>
   <v name="genvec1">      0.20000000       0.00000000       0.00000000 </v>
   <v name="genvec2">      0.00000000       0.20000000       0.00000000 </v>
   <v name="genvec3">      0.00000000      -0.00000000       0.14285714 </v>
   <v name="shift">      0.00000000       0.00000000       0.00000000 </v>
  </generation>
  <varray name="kpointlist" >
   <v>       0.00000000       0.00000000       0.00000000 </v>
   <v>       0.20000000       0.00000000       0.00000000 </v>
   <v>       0.40000000       0.00000000       0.00000000 </v>
   <v>       0.20000000       0.20000000       0.00000000 </v>
   <v>       0.40000000       0.20000000       0.00000000 </v>
   <v>       0.40000000       0.40000000       0.00000000 </v>
   <v>       0.00000000       0.00000000       0.14285714 </v>
   <v>       0.20000000       0.00000000       0.14285714 </v>
   <v>       0.40000000       0.00000000       0.14285714 </v>
   <v>       0.20000000       0.20000000       0.14285714 </v>
   <v>       0.40000000       0.20000000       0.14285714 </v>
   <v>       0.40000000       0.40000000       0.14285714 </v>
   <v>       0.00000000       0.00000000       0.28571429 </v>
   <v>       0.20000000       0.00000000       0.28571429 </v>
   <v>       0.40000000       0.00000000       0.28571429 </v>
   <v>       0.20000000       0.20000000       0.28571429 </v>
   <v>       0.40000000       0.20000000       0.28571429 </v>
   <v>       0.40000000       0.40000000       0.28571429 </v>
   <v>       0.00000000       0.00000000       0.42857143 </v>
   <v>       0.20000000       0.00000000       0.42857143 </v>
   <v>       0.40000000       0.00000000       0.42857143 </v>
   <v>       0.20000000       0.20000000       0.42857143 </v>
   <v>       0.40000000       0.20000000       0.42857143 </v>
   <v>       0.40000000       0.40000000       0.42857143 </v>
  </varray>
  <varray name="weights" >
   <v>       0.00571429 </v>
   <v>       0.02285714 </v>
   <v>       0.02285714 </v>
   <v>       0.02285714 </v>
   <v>       0.04571429 </v>
   <v>       0.02285714 </v>
   <v>       0.01142857 </v>
   <v>       0.04571429 </v>
   <v>       0.04571429 </v>
   <v>       0.04571429 </v>
   <v>       0.09142857 </v>
   <v>       0.04571429 </v>
   <v>       0.01142857 </v>
   <v>       0.04571429 </v>
   <v>       0.04571429 </v>
   <v>       0.04571429 </v>
   <v>       0.09142857 </v>
   <v>       0.04571429 </v>
   <v>       0.01142857 </v>
   <v>       0.04571429 </v>
   <v>       0.04571429 </v>
   <v>       0.04571429 </v>
   <v>       0.09142857 </v>
   <v>       0.04571429 </v>
  </varray>
 </kpoints>
 <parameters>
  <separator name="general" >
   <i type="string" name="SYSTEM">unknown system</i>
   <i type="logical" name="LCOMPAT"> F  </i>
  </separator>
  <separator name="electronic" >
   <i type="string" name="PREC">accura</i>
   <i name="ENMAX">    400.00000000</i>
   <i name="ENAUG">    605.39200000</i>
   <i name="EDIFF">      0.00000001</i>
   <i type="int" name="IALGO">    38</i>
   <i type="int" name="IWAVPR">    10</i>
   <i type="int" name="NBANDS">    36</i>
   <i name="NELECT">     48.00000000</i>
   <i type="int" name="TURBO">     0</i>
   <i type="int" name="IRESTART">     0</i>
   <i type="int" name="NREBOOT">     0</i>
   <i type="int" name="NMIN">     0</i>
   <i name="EREF">      0.00000000</i>
   <separator name="electronic smearing" >
    <i type="int" name="ISMEAR">     0</i>
    <i name="SIGMA">      0.01000000</i>
    <i name="KSPACING">      0.50000000</i>
    <i type="logical" name="KGAMMA"> T  </i>
   </separator>
   <separator name="electronic projectors" >
    <i type="logical" name="LREAL"> F  </i>
    <v name="ROPT">      0.00000000      0.00000000</v>
    <i type="int" name="LMAXPAW">  -100</i>
    <i type="int" name="LMAXMIX">     2</i>
    <i type="logical" name="NLSPLINE"> F  </i>
   </separator>
   <separator name="electronic startup" >
    <i type="int" name="ISTART">     0</i>
    <i type="int" name="ICHARG">     2</i>
    <i type="int" name="INIWAV">     1</i>
   </separator>
   <separator name="electronic spin" >
    <i type="int" name="ISPIN">     1</i>
    <i type="logical" name="LNONCOLLINEAR"> F  </i>
    <v name="MAGMOM">      1.00000000      1.00000000      1.00000000      1.00000000      1.00000000      1.00000000</v>
    <i name="NUPDOWN">     -1.00000000</i>
    <i type="logical" name="LSORBIT"> F  </i>
    <v name="SAXIS">      0.00000000      0.00000000      1.00000000</v>
    <i type="logical" name="LSPIRAL"> F  </i>
    <v name="QSPIRAL">      0.00000000      0.00000000      0.00000000</v>
    <i type="logical" name="LZEROZ"> F  </i>
   </separator>
   <separator name="electronic exchange-correlation" >
    <i type="logical" name="LASPH"> F  </i>
    <i type="logical" name="LMETAGGA"> F  </i>
   </separator>
   <separator name="electronic convergence" >
    <i type="int" name="NELM">    60</i>
    <i type="int" name="NELMDL">     0</i>
    <i type="int" name="NELMIN">     2</i>
    <i name="ENINI">    400.00000000</i>
    <separator name="electronic convergence detail" >
     <i type="logical" name="LDIAG"> T  </i>
     <i type="logical" name="LSUBROT"> F  </i>
     <i name="WEIMIN">      0.00000000</i>
     <i name="EBREAK">      0.00000000</i>
     <i name="DEPER">      0.30000000</i>
     <i type="int" name="NRMM">     4</i>
     <i name="TIME">      0.40000000</i>
    </separator>
   </separator>
   <separator name="electronic mixer" >
    <i name="AMIX">      0.40000000</i>
    <i name="BMIX">      1.00000000</i>
    <i name="AMIN">      0.10000000</i>
    <i name="AMIX_MAG">      1.60000000</i>
    <i name="BMIX_MAG">      1.00000000</i>
    <separator name="electronic mixer details" >
     <i type="int" name="IMIX">     4</i>
     <i type="logical" name="MIXFIRST"> F  </i>
     <i type="int" name="MAXMIX">   -45</i>
     <i name="WC">    100.00000000</i>
     <i type="int" name="INIMIX">     1</i>
     <i type="int" name="MIXPRE">     1</i>
     <i type="int" name="MREMOVE">     5</i>
    </separator>
   </separator>
   <separator name="electronic dipolcorrection" >
    <i type="logical" name="LDIPOL"> F  </i>
    <i type="logical" name="LMONO"> F  </i>
    <i type="int" name="IDIPOL">     0</i>
    <i name="EPSILON">      1.00000000</i>
    <v name="DIPOL">   -100.00000000   -100.00000000   -100.00000000</v>
    <i name="EFIELD">      0.00000000</i>
   </separator>
  </separator>
  <separator name="grids" >
   <i type="int" name="NGX">    30</i>
   <i type="int" name="NGY">    30</i>
   <i type="int" name="NGZ">    20</i>
   <i type="int" name="NGXF">    60</i>
   <i type="int" name="NGYF">    60</i>
   <i type="int" name="NGZF">    40</i>
   <i type="logical" name="ADDGRID"> F  </i>
  </separator>
  <separator name="ionic" >
   <i type="int" name="NSW">     0</i>
   <i type="int" name="IBRION">    -1</i>
   <i type="int" name="MDALGO">     0</i>
   <i type="int" name="ISIF">     2</i>
   <i name="PSTRESS">      0.00000000</i>
   <i name="EDIFFG">      0.00000010</i>
   <i type="int" name="NFREE">     0</i>
   <i name="POTIM">      0.50000000</i>
   <i name="SMASS">     -3.00000000</i>
   <i name="SCALEE">      1.00000000</i>
  </separator>
  <separator name="ionic md" >
   <i name="TEBEG">      0.00010000</i>
   <i name="TEEND">      0.00010000</i>
   <i type="int" name="NBLOCK">     1</i>
   <i type="int" name="KBLOCK">     1</i>
   <i type="int" name="NPACO">   256</i>
   <i name="APACO">     16.00000000</i>
  </separator>
  <separator name="symmetry" >
   <i type="int" name="ISYM">     2</i>
   <i name="SYMPREC">      0.00001000</i>
  </separator>
  <separator name="dos" >
   <i type="int" name="LORBIT">    11</i>
   <v name="RWIGS">     -1.00000000     -1.00000000</v>
   <i type="int" name="NEDOS">   301</i>
   <i name="EMIN">     10.00000000</i>
   <i name="EMAX">    -10.00000000</i>
   <i name="EFERMI">      0.00000000</i>
  </separator>
  <separator name="writing" >
   <i type="int" name="NWRITE">     2</i>
   <i type="logical" name="LWAVE"> F  </i>
   <i type="logical" name="LDOWNSAMPLE"> F  </i>
   <i type="logical" name="LCHARG"> T  </i>
   <i type="logical" name="LPARD"> F  </i>
   <i type="logical" name="LVTOT"> F  </i>
   <i type="logical" name="LVHAR"> F  </i>
   <i type="logical" name="LELF"> F  </i>
   <i type="logical" name="LOPTICS"> F  </i>
   <v name="STM">      0.00000000      0.00000000      0.00000000      0.00000000      0.00000000      0.00000000      0.00000000</v>
  </separator>
  <separator name="performance" >
   <i type="int" name="NPAR">    12</i>
   <i type="int" name="NSIM">     4</i>
   <i type="int" name="NBLK">    -1</i>
   <i type="logical" name="LPLANE"> T  </i>
   <i type="logical" name="LSCALAPACK"> F  </i>
   <i type="logical" name="LSCAAWARE"> F  </i>
   <i type="logical" name="LSCALU"> F  </i>
   <i type="logical" name="LASYNC"> F  </i>
   <i type="logical" name="LORBITALREAL"> F  </i>
  </separator>
  <separator name="miscellaneous" >
   <i type="int" name="IDIOT">     3</i>
   <i type="int" name="ISPECIAL">     0</i>
   <i type="logical" name="LMUSIC"> F  </i>
   <v name="POMASS">     16.00000000     47.88000000</v>
   <v name="DARWINR">      0.00000000      0.00000000</v>
   <v name="DARWINV">      1.00000000      1.00000000</v>
   <i type="logical" name="LCORR"> T  </i>
  </separator>
  <i type="logical" name="GGA_COMPAT"> T  </i>
  <i type="logical" name="LBERRY"> F  </i>
  <i type="int" name="ICORELEVEL">     0</i>
  <i type="logical" name="LDAU"> F  </i>
  <i type="int" name="I_CONSTRAINED_M">     0</i>
  <separator name="electronic exchange-correlation" >
   <i type="string" name="GGA">--</i>
   <i type="int" name="VOSKOWN">     0</i>
   <i type="logical" name="LHFCALC"> F  </i>
   <i type="string" name="PRECFOCK"></i>
   <i type="logical" name="LSYMGRAD"> F  </i>
   <i type="logical" name="LHFONE"> F  </i>
   <i type="logical" name="LRHFCALC"> F  </i>
   <i type="logical" name="LTHOMAS"> F  </i>
   <i type="logical" name="LMODELHF"> F  </i>
   <i name="ENCUT4O">     -1.00000000</i>
   <i type="int" name="EXXOEP">     0</i>
   <i type="int" name="FOURORBIT">     0</i>
   <i name="AEXX">      0.00000000</i>
   <i name="HFALPHA">      0.00000000</i>
   <i name="MCALPHA">      0.00000000</i>
   <i name="ALDAX">      1.00000000</i>
   <i name="AGGAX">      1.00000000</i>
   <i name="ALDAC">      1.00000000</i>
   <i name="AGGAC">      1.00000000</i>
   <i type="int" name="NKREDX">     1</i>
   <i type="int" name="NKREDY">     1</i>
   <i type="int" name="NKREDZ">     1</i>
   <i type="logical" name="SHIFTRED"> F  </i>
   <i type="logical" name="ODDONLY"> F  </i>
   <i type="logical" name="EVENONLY"> F  </i>
   <i type="int" name="LMAXFOCK">     0</i>
   <i type="int" name="NMAXFOCKAE">     0</i>
   <i type="logical" name="LFOCKAEDFT"> F  </i>
   <i name="HFSCREEN">      0.00000000</i>
   <i name="HFSCREENC">      0.00000000</i>
   <i type="int" name="NBANDSGWLOW">     0</i>
  </separator>
  <separator name="vdW DFT" >
   <i type="logical" name="LUSE_VDW"> F  </i>
   <i name="Zab_VDW">     -0.84910000</i>
   <i name="PARAM1">      0.12340000</i>
   <i name="PARAM2">      1.00000000</i>
   <i name="PARAM3">      0.00000000</i>
  </separator>
  <separator name="model GW" >
   <i type="int" name="MODEL_GW">     0</i>
   <i name="MODEL_EPS0">      6.22206596</i>
   <i name="MODEL_ALPHA">      1.00000000</i>
  </separator>
  <separator name="linear response parameters" >
   <i type="logical" name="LEPSILON"> F  </i>
   <i type="logical" name="LRPA"> F  </i>
   <i type="logical" name="LNABLA"> F  </i>
   <i type="logical" name="LVEL"> F  </i>
   <i type="int" name="KINTER">     0</i>
   <i name="CSHIFT">      0.10000000</i>
   <i name="OMEGAMAX">     -1.00000000</i>
   <i name="DEG_THRESHOLD">      0.00200000</i>
   <i name="RTIME">     -0.10000000</i>
   <i name="WPLASMAI">      0.00000000</i>
   <v name="DFIELD">      0.00000000      0.00000000      0.00000000</v>
   <v name="WPLASMA">      0.00000000      0.00000000      0.00000000      0.00000000      0.00000000      0.00000000      0.00000000      0.00000000      0.00000000</v>
  </separator>
  <separator name="orbital magnetization" >
   <i type="logical" name="NUCIND"> F  </i>
   <v name="MAGPOS">      0.00000000      0.00000000      0.00000000</v>
   <i type="logical" name="LNICSALL"> T  </i>
   <i type="logical" name="ORBITALMAG"> F  </i>
   <i type="logical" name="LMAGBLOCH"> F  </i>
   <i type="logical" name="LCHIMAG"> F  </i>
   <i type="logical" name="LGAUGE"> T  </i>
   <i type="int" name="MAGATOM">     0</i>
   <v name="MAGDIPOL">      0.00000000      0.00000000      0.00000000</v>
   <v name="AVECCONST">      0.00000000      0.00000000      0.00000000</v>
  </separator>
  <separator name="response functions" >
   <i type="logical" name="LADDER"> F  </i>
   <i type="logical" name="LRPAFORCE"> F  </i>
   <i type="logical" name="LFXC"> F  </i>
   <i type="logical" name="LHARTREE"> T  </i>
   <i type="int" name="IBSE">     0</i>
   <v type="int" name="KPOINT">    -1     0     0     0</v>
   <i type="logical" name="LTCTE"> F  </i>
   <i type="logical" name="LTETE"> F  </i>
   <i type="logical" name="LTRIPLET"> F  </i>
   <i type="logical" name="LFXCEPS"> F  </i>
   <i type="logical" name="LFXHEG"> F  </i>
   <i type="int" name="NATURALO">     2</i>
   <i type="logical" name="L2ORDER"> F  </i>
   <i type="logical" name="LMP2LT"> F  </i>
   <i type="logical" name="LUSEW"> F  </i>
   <i name="ENCUTGW">     -2.00000000</i>
   <i name="ENCUTGWSOFT">     -2.00000000</i>
   <i name="ENCUTLF">     -1.00000000</i>
   <i type="int" name="LMAXMP2">    -1</i>
   <i name="SCISSOR">      0.00000000</i>
   <i type="int" name="NOMEGA">     0</i>
   <i type="int" name="NOMEGAR">     0</i>
   <i type="int" name="NBANDSGW">    -1</i>
   <i type="int" name="NBANDSO">    -1</i>
   <i type="int" name="NBANDSV">    -1</i>
   <i type="int" name="NELM">     1</i>
   <i type="int" name="NELMHF">     1</i>
   <i type="int" name="DIM">     3</i>
   <i type="int" name="ANTIRES">     0</i>
   <i name="OMEGAMAX">    -30.00000000</i>
   <i name="OMEGAMIN">    -30.00000000</i>
   <i name="OMEGATL">   -200.00000000</i>
   <i type="int" name="OMEGAGRID">   140</i>
   <i name="CSHIFT">     -0.10000000</i>
   <i type="logical" name="SELFENERGY"> F  </i>
   <i type="logical" name="LSPECTRAL"> F  </i>
   <i type="logical" name="LSPECTRALGW"> F  </i>
   <i type="logical" name="LSINGLES"> F  </i>
   <i type="logical" name="LFERMIGW"> F  </i>
   <i type="logical" name="ODDONLYGW"> F  </i>
   <i type="logical" name="EVENONLYGW"> F  </i>
   <i type="int" name="NKREDLFX">     1</i>
   <i type="int" name="NKREDLFY">     1</i>
   <i type="int" name="NKREDLFZ">     1</i>
   <i type="int" name="MAXMEM">  2800</i>
   <i type="int" name="TELESCOPE">     0</i>
   <i type="int" name="TAUPAR">     1</i>
   <i type="int" name="OMEGAPAR">    -1</i>
   <i name="LAMBDA">      1.00000000</i>
  </separator>
  <separator name="External order field" >
   <i name="OFIELD_KAPPA">      0.00000000</i>
   <v name="OFIELD_K">      0.00000000      0.00000000      0.00000000</v>
   <i name="OFIELD_Q6_NEAR">      0.00000000</i>
   <i name="OFIELD_Q6_FAR">      0.00000000</i>
   <i name="OFIELD_A">      0.00000000</i>
  </separator>
 </parameters>
 <atominfo>
  <atoms>       6 </atoms>
  <types>       2 </types>
  <array name="atoms" >
   <dimension dim="1">ion</dimension>
   <field type="string">element</field>
   <field type="int">atomtype</field>
   <set>
    <rc><c>O </c><c>   1</c></rc>
    <rc><c>O </c><c>   1</c></rc>
    <rc><c>O </c><c>   1</c></rc>
    <rc><c>O </c><c>   1</c></rc>
    <rc><c>Ti</c><c>   2</c></rc>
    <rc><c>Ti</c><c>   2</c></rc>
   </set>
  </array>
  <array name="atomtypes" >
   <dimension dim="1">type</dimension>
   <field type="int">atomspertype</field>
   <field type="string">element</field>
   <field>mass</field>
   <field>valence</field>
   <field type="string">pseudopotential</field>
   <set>
    <rc><c>   4</c><c>O </c><c>     16.00000000</c><c>      6.00000000</c><c>  PAW_PBE O 08Apr2002                   </c></rc>
    <rc><c>   2</c><c>Ti</c><c>     47.88000000</c><c>     12.00000000</c><c>  PAW_PBE Ti_sv 26Sep2005               </c></rc>
   </set>
  </array>
 </atominfo>
 <structure name="initialpos" >
  <crystal>
   <varray name="basis" >
    <v>       4.59096672       0.00000000       0.00000000 </v>
    <v>       0.00000000       4.59096672       0.00000000 </v>
    <v>       0.00000000       0.00000000       2.95206776 </v>
   </varray>
   <i name="volume">     62.22065961 </i>
   <varray name="rec_basis" >
    <v>       0.21781905      -0.00000000       0.00000000 </v>
    <v>       0.00000000       0.21781905       0.00000000 </v>
    <v>      -0.00000000      -0.00000000       0.33874561 </v>
   </varray>
  </crystal>
  <varray name="positions" >
   <v>       0.69606687       0.69606687       0.50000000 </v>
   <v>       0.19606687       0.80393313       0.00000000 </v>
   <v>       0.80393313       0.19606687       0.00000000 </v>
   <v>       0.30393313       0.30393313       0.50000000 </v>
   <v>       0.50000000       0.50000000       0.00000000 </v>
   <v>       0.00000000       0.00000000       0.50000000 </v>
  </varray>
 </structure>
 <calculation>
  <scstep>
   <time name="dav">    0.47    0.48</time>
   <time name="total">    0.50    0.52</time>
   <energy>
    <i name="alphaZ">    199.29430999 </i>
    <i name="ewald">  -3601.14072637 </i>
    <i name="hartreedc">  -1253.06244097 </i>
    <i name="XCdc">    235.32039925 </i>
    <i name="pawpsdc">   3915.32828904 </i>
    <i name="pawaedc">  -3883.35319469 </i>
    <i name="eentropy">     -0.00028274 </i>
    <i name="bandstr">     -4.55674076 </i>
    <i name="atom">   4905.20341037 </i>
    <i name="e_fr_energy">    513.03302313 </i>
    <i name="e_wo_entrp">    513.03330587 </i>
    <i name="e_0_energy">    513.03316450 </i>
   </energy>
  </scstep>
  <scstep>
   <time name="dav">    0.55    0.55</time>
   <time name="total">    0.55    0.55</time>
   <energy>
    <i name="e_fr_energy">    -17.17565739 </i>
    <i name="e_wo_entrp">    -17.17565739 </i>
    <i name="e_0_energy">    -17.17565739 </i>
   </energy>
  </scstep>
  <scstep>
   <time name="dav">    0.65    0.65</time>
   <time name="total">    0.65    0.65</time>
   <energy>
    <i name="e_fr_energy">    -68.40922425 </i>
    <i name="e_wo_entrp">    -68.40922425 </i>
    <i name="e_0_energy">    -68.40922425 </i>
   </energy>
  </scstep>
  <scstep>
   <time name="dav">    0.61    0.61</time>
   <time name="total">    0.61    0.61</time>
   <energy>
    <i name="e_fr_energy">    -70.91390208 </i>
    <i name="e_wo_entrp">    -70.91390208 </i>
    <i name="e_0_energy">    -70.91390208 </i>
   </energy>
  </scstep>
  <scstep>
   <time name="dav">    0.59    0.59</time>
   <time name="total">    0.60    0.61</time>
   <energy>
    <i name="e_fr_energy">    -70.98541956 </i>
    <i name="e_wo_entrp">    -70.98541956 </i>
    <i name="e_0_energy">    -70.98541956 </i>
   </energy>
  </scstep>
  <scstep>
   <time name="dav">    0.58    0.58</time>
   <time name="total">    0.61    0.61</time>
   <energy>
    <i name="e_fr_energy">    -54.37083732 </i>
    <i name="e_wo_entrp">    -54.37083732 </i>
    <i name="e_0_energy">    -54.37083732 </i>
   </energy>
  </scstep>
  <scstep>
   <time name="dav">    0.49    0.49</time>
   <time name="total">    0.52    0.52</time>
   <energy>
    <i name="e_fr_energy">    -53.97701385 </i>
    <i name="e_wo_entrp">    -53.97701385 </i>
    <i name="e_0_energy">    -53.97701385 </i>
   </energy>
  </scstep>
  <scstep>
   <time name="dav">    0.53    0.53</time>
   <time name="total">    0.56    0.56</time>
   <energy>
    <i name="e_fr_energy">    -53.80424605 </i>
    <i name="e_wo_entrp">    -53.80424605 </i>
    <i name="e_0_energy">    -53.80424605 </i>
   </energy>
  </scstep>
  <scstep>
   <time name="dav">    0.61    0.61</time>
   <time name="total">    0.63    0.63</time>
   <energy>
    <i name="e_fr_energy">    -53.85235933 </i>
    <i name="e_wo_entrp">    -53.85235933 </i>
    <i name="e_0_energy">    -53.85235933 </i>
   </energy>
  </scstep>
  <scstep>
   <time name="dav">    0.67    0.67</time>
   <time name="total">    0.70    0.70</time>
   <energy>
    <i name="e_fr_energy">    -53.72795204 </i>
    <i name="e_wo_entrp">    -53.72795204 </i>
    <i name="e_0_energy">    -53.72795204 </i>
   </energy>
  </scstep>
  <scstep>
   <time name="dav">    0.56    0.56</time>
   <time name="total">    0.58    0.58</time>
   <energy>
    <i name="e_fr_energy">    -53.70032235 </i>
    <i name="e_wo_entrp">    -53.70032235 </i>
    <i name="e_0_energy">    -53.70032235 </i>
   </energy>
  </scstep>
  <scstep>
   <time name="dav">    0.58    0.58</time>
   <time name="total">    0.60    0.60</time>
   <energy>
    <i name="e_fr_energy">    -53.69945462 </i>
    <i name="e_wo_entrp">    -53.69945462 </i>
    <i name="e_0_energy">    -53.69945462 </i>
   </energy>
  </scstep>
  <scstep>
   <time name="dav">    0.52    0.52</time>
   <time name="total">    0.54    0.54</time>
   <energy>
    <i name="e_fr_energy">    -53.69906269 </i>
    <i name="e_wo_entrp">    -53.69906269 </i>
    <i name="e_0_energy">    -53.69906269 </i>
   </energy>
  </scstep>
  <scstep>
   <time name="dav">    0.56    0.56</time>
   <time name="total">    0.59    0.59</time>
   <energy>
    <i name="e_fr_energy">    -53.69890695 </i>
    <i name="e_wo_entrp">    -53.69890695 </i>
    <i name="e_0_energy">    -53.69890695 </i>
   </energy>
  </scstep>
  <scstep>
   <time name="dav">    0.59    0.59</time>
   <time name="total">    0.62    0.62</time>
   <energy>
    <i name="e_fr_energy">    -53.69889190 </i>
    <i name="e_wo_entrp">    -53.69889190 </i>
    <i name="e_0_energy">    -53.69889190 </i>
   </energy>
  </scstep>
  <scstep>
   <time name="dav">    0.67    0.67</time>
   <time name="total">    0.70    0.70</time>
   <energy>
    <i name="e_fr_energy">    -53.69888975 </i>
    <i name="e_wo_entrp">    -53.69888975 </i>
    <i name="e_0_energy">    -53.69888975 </i>
   </energy>
  </scstep>
  <scstep>
   <time name="dav">    0.57    0.57</time>
   <time name="total">    0.60    0.60</time>
   <energy>
    <i name="e_fr_energy">    -53.69888948 </i>
    <i name="e_wo_entrp">    -53.69888948 </i>
    <i name="e_0_energy">    -53.69888948 </i>
   </energy>
  </scstep>
  <scstep>
   <time name="dav">    0.54    0.54</time>
   <time name="total">    0.57    0.57</time>
   <energy>
    <i name="e_fr_energy">    -53.69888953 </i>
    <i name="e_wo_entrp">    -53.69888953 </i>
    <i name="e_0_energy">    -53.69888953 </i>
   </energy>
  </scstep>
  <scstep>
   <time name="dav">    0.61    0.61</time>
   <time name="total">    0.64    0.64</time>
   <energy>
    <i name="e_fr_energy">    -53.69888952 </i>
    <i name="e_wo_entrp">    -53.69888952 </i>
    <i name="e_0_energy">    -53.69888952 </i>
   </energy>
  </scstep>
  <scstep>
   <time name="dav">    0.32    0.32</time>
   <time name="total">    0.34    0.34</time>
   <energy>
    <i name="alphaZ">    199.29430999 </i>
    <i name="ewald">  -3601.14072637 </i>
    <i name="hartreedc">  -1235.29397869 </i>
    <i name="XCdc">    236.56859399 </i>
    <i name="pawpsdc">   5565.78733383 </i>
    <i name="pawaedc">  -5527.71427678 </i>
    <i name="eentropy">     -0.00000000 </i>
    <i name="bandstr">   -596.40355586 </i>
    <i name="atom">   4905.20341037 </i>
    <i name="e_fr_energy">    -53.69888953 </i>
    <i name="e_wo_entrp">    -53.69888953 </i>
    <i name="e_0_energy">    -53.69888953 </i>
   </energy>
  </scstep>
  <structure>
   <crystal>
    <varray name="basis" >
     <v>       4.59096672       0.00000000       0.00000000 </v>
     <v>       0.00000000       4.59096672       0.00000000 </v>
     <v>       0.00000000       0.00000000       2.95206776 </v>
    </varray>
    <i name="volume">     62.22065961 </i>
    <varray name="rec_basis" >
     <v>       0.21781905      -0.00000000       0.00000000 </v>
     <v>       0.00000000       0.21781905       0.00000000 </v>
     <v>      -0.00000000      -0.00000000       0.33874561 </v>
    </varray>
   </crystal>
   <varray name="positions" >
    <v>       0.69606687       0.69606687       0.50000000 </v>
    <v>       0.19606687       0.80393313       0.00000000 </v>
    <v>       0.80393313       0.19606687       0.00000000 </v>
    <v>       0.30393313       0.30393313       0.50000000 </v>
    <v>       0.50000000       0.50000000       0.00000000 </v>
    <v>       0.00000000       0.00000000       0.50000000 </v>
   </varray>
  </structure>
  <varray name="forces" >
   <v>      -0.00005812      -0.00005812      -0.00000000 </v>
   <v>      -0.00005812       0.00005812       0.00000000 </v>
   <v>       0.00005812      -0.00005812      -0.00000000 </v>
   <v>       0.00005812       0.00005812       0.00000000 </v>
   <v>      -0.00000000       0.00000000       0.00000000 </v>
   <v>      -0.00000000       0.00000000       0.00000000 </v>
  </varray>
  <varray name="stress" >
   <v>      -2.46579213       0.00000000       0.00000000 </v>
   <v>       0.00000000      -2.46579213       0.00000000 </v>
   <v>       0.00000000       0.00000000      -2.15418796 </v>
  </varray>
  <energy>
   <i name="e_fr_energy">    -53.69888953 </i>
   <i name="e_wo_entrp">    -53.69888953 </i>
   <i name="e_0_energy">     -0.00000000 </i>
  </energy>
  <time name="totalsc">   12.23   12.31</time>
  <eigenvalues>
   <array>
    <dimension dim="1">band</dimension>
    <dimension dim="2">kpoint</dimension>
    <dimension dim="3">spin</dimension>
    <field>eigene</field>
    <field>occ</field>
    <set>
     <set comment="spin 1">
      <set comment="kpoint 1">
       <r>  -52.0261    1.0000 </r>
       <r>  -52.0095    1.0000 </r>
       <r>  -28.3460    1.0000 </r>
       <r>  -28.3460    1.0000 </r>
       <r>  -28.1793    1.0000 </r>
       <r>  -28.1793    1.0000 </r>
       <r>  -28.1362    1.0000 </r>
       <r>  -28.1021    1.0000 </r>
       <r>  -13.3347    1.0000 </r>
       <r>  -12.1660    1.0000 </r>
       <r>  -11.4362    1.0000 </r>
       <r>  -11.4362    1.0000 </r>
       <r>   -0.8932    1.0000 </r>
       <r>   -0.4885    1.0000 </r>
       <r>   -0.0659    1.0000 </r>
       <r>    1.0625    1.0000 </r>
       <r>    1.0625    1.0000 </r>
       <r>    2.3165    1.0000 </r>
       <r>    2.3165    1.0000 </r>
       <r>    2.8950    1.0000 </r>
       <r>    4.1728    1.0000 </r>
       <r>    4.4183    1.0000 </r>
       <r>    4.4183    1.0000 </r>
       <r>    4.8887    1.0000 </r>
       <r>    6.7325    0.0000 </r>
       <r>    7.0180    0.0000 </r>
       <r>    7.2728    0.0000 </r>
       <r>    7.3783    0.0000 </r>
       <r>    7.3783    0.0000 </r>
       <r>    9.2917    0.0000 </r>
       <r>    9.4686    0.0000 </r>
       <r>   11.4836    0.0000 </r>
       <r>   11.4836    0.0000 </r>
       <r>   12.5386    0.0000 </r>
       <r>   12.7998    0.0000 </r>
       <r>   16.5721    0.0000 </r>
      </set>
      <set comment="kpoint 2">
       <r>  -52.0242    1.0000 </r>
       <r>  -52.0104    1.0000 </r>
       <r>  -28.3330    1.0000 </r>
       <r>  -28.3318    1.0000 </r>
       <r>  -28.1949    1.0000 </r>
       <r>  -28.1937    1.0000 </r>
       <r>  -28.1329    1.0000 </r>
       <r>  -28.1053    1.0000 </r>
       <r>  -13.1934    1.0000 </r>
       <r>  -12.1736    1.0000 </r>
       <r>  -11.5683    1.0000 </r>
       <r>  -11.4888    1.0000 </r>
       <r>   -0.6411    1.0000 </r>
       <r>   -0.3273    1.0000 </r>
       <r>    0.1995    1.0000 </r>
       <r>    1.0795    1.0000 </r>
       <r>    1.0897    1.0000 </r>
       <r>    2.0770    1.0000 </r>
       <r>    2.2401    1.0000 </r>
       <r>    2.9180    1.0000 </r>
       <r>    3.7465    1.0000 </r>
       <r>    3.9288    1.0000 </r>
       <r>    4.1403    1.0000 </r>
       <r>    4.7432    1.0000 </r>
       <r>    6.9409    0.0000 </r>
       <r>    7.2715    0.0000 </r>
       <r>    7.5348    0.0000 </r>
       <r>    7.5539    0.0000 </r>
       <r>    7.5925    0.0000 </r>
       <r>    9.2621    0.0000 </r>
       <r>    9.6036    0.0000 </r>
       <r>   11.3535    0.0000 </r>
       <r>   11.3786    0.0000 </r>
       <r>   12.2715    0.0000 </r>
       <r>   13.3040    0.0000 </r>
       <r>   16.4392    0.0000 </r>
      </set>
      <set comment="kpoint 3">
       <r>  -52.0202    1.0000 </r>
       <r>  -52.0144    1.0000 </r>
       <r>  -28.3012    1.0000 </r>
       <r>  -28.2989    1.0000 </r>
       <r>  -28.2302    1.0000 </r>
       <r>  -28.2278    1.0000 </r>
       <r>  -28.1244    1.0000 </r>
       <r>  -28.1139    1.0000 </r>
       <r>  -12.8206    1.0000 </r>
       <r>  -12.3752    1.0000 </r>
       <r>  -11.7034    1.0000 </r>
       <r>  -11.6143    1.0000 </r>
       <r>   -0.1749    1.0000 </r>
       <r>   -0.0404    1.0000 </r>
       <r>    1.0546    1.0000 </r>
       <r>    1.1128    1.0000 </r>
       <r>    1.1246    1.0000 </r>
       <r>    1.7120    1.0000 </r>
       <r>    1.9006    1.0000 </r>
       <r>    2.4006    1.0000 </r>
       <r>    3.0676    1.0000 </r>
       <r>    3.4449    1.0000 </r>
       <r>    4.0115    1.0000 </r>
       <r>    4.3424    1.0000 </r>
       <r>    7.2860    0.0000 </r>
       <r>    7.4495    0.0000 </r>
       <r>    7.8338    0.0000 </r>
       <r>    7.8900    0.0000 </r>
       <r>    8.1321    0.0000 </r>
       <r>    8.7558    0.0000 </r>
       <r>   10.4720    0.0000 </r>
       <r>   11.1411    0.0000 </r>
       <r>   11.1714    0.0000 </r>
       <r>   11.5047    0.0000 </r>
       <r>   14.4775    0.0000 </r>
       <r>   15.7111    0.0000 </r>
      </set>
      <set comment="kpoint 4">
       <r>  -52.0228    1.0000 </r>
       <r>  -52.0118    1.0000 </r>
       <r>  -28.3503    1.0000 </r>
       <r>  -28.2973    1.0000 </r>
       <r>  -28.2312    1.0000 </r>
       <r>  -28.1766    1.0000 </r>
       <r>  -28.1303    1.0000 </r>
       <r>  -28.1079    1.0000 </r>
       <r>  -13.0854    1.0000 </r>
       <r>  -12.2117    1.0000 </r>
       <r>  -11.6730    1.0000 </r>
       <r>  -11.4818    1.0000 </r>
       <r>   -0.7021    1.0000 </r>
       <r>   -0.0326    1.0000 </r>
       <r>    0.4194    1.0000 </r>
       <r>    1.0390    1.0000 </r>
       <r>    1.1289    1.0000 </r>
       <r>    1.8164    1.0000 </r>
       <r>    2.3949    1.0000 </r>
       <r>    2.9679    1.0000 </r>
       <r>    3.3862    1.0000 </r>
       <r>    3.8293    1.0000 </r>
       <r>    3.9558    1.0000 </r>
       <r>    4.6266    1.0000 </r>
       <r>    6.8081    0.0000 </r>
       <r>    7.3859    0.0000 </r>
       <r>    7.4308    0.0000 </r>
       <r>    7.8069    0.0000 </r>
       <r>    7.8657    0.0000 </r>
       <r>    9.1459    0.0000 </r>
       <r>    9.8011    0.0000 </r>
       <r>   11.1566    0.0000 </r>
       <r>   11.4822    0.0000 </r>
       <r>   12.0068    0.0000 </r>
       <r>   13.7930    0.0000 </r>
       <r>   16.6414    0.0000 </r>
      </set>
      <set comment="kpoint 5">
       <r>  -52.0195    1.0000 </r>
       <r>  -52.0151    1.0000 </r>
       <r>  -28.3392    1.0000 </r>
       <r>  -28.3049    1.0000 </r>
       <r>  -28.2250    1.0000 </r>
       <r>  -28.1898    1.0000 </r>
       <r>  -28.1233    1.0000 </r>
       <r>  -28.1148    1.0000 </r>
       <r>  -12.7967    1.0000 </r>
       <r>  -12.4408    1.0000 </r>
       <r>  -11.6874    1.0000 </r>
       <r>  -11.5723    1.0000 </r>
       <r>   -0.4918    1.0000 </r>
       <r>   -0.0852    1.0000 </r>
       <r>    1.0500    1.0000 </r>
       <r>    1.1053    1.0000 </r>
       <r>    1.1068    1.0000 </r>
       <r>    1.8460    1.0000 </r>
       <r>    2.2122    1.0000 </r>
       <r>    2.8260    1.0000 </r>
       <r>    3.1766    1.0000 </r>
       <r>    3.5288    1.0000 </r>
       <r>    3.7041    1.0000 </r>
       <r>    4.1667    1.0000 </r>
       <r>    7.0411    0.0000 </r>
       <r>    7.3692    0.0000 </r>
       <r>    7.5694    0.0000 </r>
       <r>    7.8667    0.0000 </r>
       <r>    8.3003    0.0000 </r>
       <r>    8.7917    0.0000 </r>
       <r>   10.4598    0.0000 </r>
       <r>   11.1553    0.0000 </r>
       <r>   11.3134    0.0000 </r>
       <r>   11.3625    0.0000 </r>
       <r>   14.8764    0.0000 </r>
       <r>   16.0034    0.0000 </r>
      </set>
      <set comment="kpoint 6">
       <r>  -52.0183    1.0000 </r>
       <r>  -52.0166    1.0000 </r>
       <r>  -28.3574    1.0000 </r>
       <r>  -28.3433    1.0000 </r>
       <r>  -28.1870    1.0000 </r>
       <r>  -28.1722    1.0000 </r>
       <r>  -28.1207    1.0000 </r>
       <r>  -28.1174    1.0000 </r>
       <r>  -12.7181    1.0000 </r>
       <r>  -12.5858    1.0000 </r>
       <r>  -11.6142    1.0000 </r>
       <r>  -11.5550    1.0000 </r>
       <r>   -0.6754    1.0000 </r>
       <r>   -0.4821    1.0000 </r>
       <r>    0.9983    1.0000 </r>
       <r>    1.0287    1.0000 </r>
       <r>    1.5883    1.0000 </r>
       <r>    2.0592    1.0000 </r>
       <r>    2.6156    1.0000 </r>
       <r>    3.0506    1.0000 </r>
       <r>    3.3952    1.0000 </r>
       <r>    3.4275    1.0000 </r>
       <r>    3.5911    1.0000 </r>
       <r>    3.9605    1.0000 </r>
       <r>    6.7765    0.0000 </r>
       <r>    7.0277    0.0000 </r>
       <r>    7.3989    0.0000 </r>
       <r>    7.5767    0.0000 </r>
       <r>    8.5904    0.0000 </r>
       <r>    8.7690    0.0000 </r>
       <r>   10.5945    0.0000 </r>
       <r>   10.9207    0.0000 </r>
       <r>   11.3590    0.0000 </r>
       <r>   11.4749    0.0000 </r>
       <r>   15.7157    0.0000 </r>
       <r>   16.3276    0.0000 </r>
      </set>
      <set comment="kpoint 7">
       <r>  -52.0175    1.0000 </r>
       <r>  -52.0020    1.0000 </r>
       <r>  -28.3235    1.0000 </r>
       <r>  -28.3235    1.0000 </r>
       <r>  -28.2220    1.0000 </r>
       <r>  -28.1925    1.0000 </r>
       <r>  -28.1755    1.0000 </r>
       <r>  -28.1755    1.0000 </r>
       <r>  -13.1265    1.0000 </r>
       <r>  -12.0494    1.0000 </r>
       <r>  -11.5323    1.0000 </r>
       <r>  -11.5323    1.0000 </r>
       <r>   -0.6017    1.0000 </r>
       <r>   -0.2707    1.0000 </r>
       <r>    0.1692    1.0000 </r>
       <r>    0.8583    1.0000 </r>
       <r>    0.8583    1.0000 </r>
       <r>    2.3201    1.0000 </r>
       <r>    2.7023    1.0000 </r>
       <r>    2.7023    1.0000 </r>
       <r>    3.3982    1.0000 </r>
       <r>    4.0255    1.0000 </r>
       <r>    4.0255    1.0000 </r>
       <r>    4.7762    1.0000 </r>
       <r>    7.1580    0.0000 </r>
       <r>    7.1893    0.0000 </r>
       <r>    7.1986    0.0000 </r>
       <r>    7.6298    0.0000 </r>
       <r>    7.6298    0.0000 </r>
       <r>    9.3055    0.0000 </r>
       <r>    9.5838    0.0000 </r>
       <r>   11.2076    0.0000 </r>
       <r>   11.2076    0.0000 </r>
       <r>   12.2335    0.0000 </r>
       <r>   13.4250    0.0000 </r>
       <r>   17.3689    0.0000 </r>
      </set>
      <set comment="kpoint 8">
       <r>  -52.0161    1.0000 </r>
       <r>  -52.0034    1.0000 </r>
       <r>  -28.3139    1.0000 </r>
       <r>  -28.3107    1.0000 </r>
       <r>  -28.2201    1.0000 </r>
       <r>  -28.2105    1.0000 </r>
       <r>  -28.1853    1.0000 </r>
       <r>  -28.1743    1.0000 </r>
       <r>  -12.9979    1.0000 </r>
       <r>  -12.0468    1.0000 </r>
       <r>  -11.6618    1.0000 </r>
       <r>  -11.5778    1.0000 </r>
       <r>   -0.3805    1.0000 </r>
       <r>   -0.1016    1.0000 </r>
       <r>    0.3199    1.0000 </r>
       <r>    0.8348    1.0000 </r>
       <r>    1.0330    1.0000 </r>
       <r>    2.1661    1.0000 </r>
       <r>    2.3971    1.0000 </r>
       <r>    2.7131    1.0000 </r>
       <r>    3.0370    1.0000 </r>
       <r>    3.8387    1.0000 </r>
       <r>    3.8992    1.0000 </r>
       <r>    4.6231    1.0000 </r>
       <r>    7.2292    0.0000 </r>
       <r>    7.3952    0.0000 </r>
       <r>    7.4729    0.0000 </r>
       <r>    7.6624    0.0000 </r>
       <r>    7.8605    0.0000 </r>
       <r>    9.1241    0.0000 </r>
       <r>    9.8368    0.0000 </r>
       <r>   10.9497    0.0000 </r>
       <r>   11.1055    0.0000 </r>
       <r>   12.1385    0.0000 </r>
       <r>   13.8911    0.0000 </r>
       <r>   17.0977    0.0000 </r>
      </set>
      <set comment="kpoint 9">
       <r>  -52.0118    1.0000 </r>
       <r>  -52.0071    1.0000 </r>
       <r>  -28.2878    1.0000 </r>
       <r>  -28.2792    1.0000 </r>
       <r>  -28.2444    1.0000 </r>
       <r>  -28.2344    1.0000 </r>
       <r>  -28.1916    1.0000 </r>
       <r>  -28.1812    1.0000 </r>
       <r>  -12.6542    1.0000 </r>
       <r>  -12.2316    1.0000 </r>
       <r>  -11.7786    1.0000 </r>
       <r>  -11.6848    1.0000 </r>
       <r>    0.0648    1.0000 </r>
       <r>    0.2147    1.0000 </r>
       <r>    0.6879    1.0000 </r>
       <r>    0.7951    1.0000 </r>
       <r>    1.4096    1.0000 </r>
       <r>    1.8507    1.0000 </r>
       <r>    2.1258    1.0000 </r>
       <r>    2.3644    1.0000 </r>
       <r>    2.5018    1.0000 </r>
       <r>    3.1184    1.0000 </r>
       <r>    4.0528    1.0000 </r>
       <r>    4.3534    1.0000 </r>
       <r>    7.4680    0.0000 </r>
       <r>    7.6019    0.0000 </r>
       <r>    7.8213    0.0000 </r>
       <r>    7.9187    0.0000 </r>
       <r>    8.2444    0.0000 </r>
       <r>    8.6774    0.0000 </r>
       <r>   10.3717    0.0000 </r>
       <r>   10.5939    0.0000 </r>
       <r>   11.0533    0.0000 </r>
       <r>   11.6353    0.0000 </r>
       <r>   15.0015    0.0000 </r>
       <r>   16.2145    0.0000 </r>
      </set>
      <set comment="kpoint 10">
       <r>  -52.0148    1.0000 </r>
       <r>  -52.0044    1.0000 </r>
       <r>  -28.3275    1.0000 </r>
       <r>  -28.2808    1.0000 </r>
       <r>  -28.2421    1.0000 </r>
       <r>  -28.2095    1.0000 </r>
       <r>  -28.1836    1.0000 </r>
       <r>  -28.1731    1.0000 </r>
       <r>  -12.8975    1.0000 </r>
       <r>  -12.0736    1.0000 </r>
       <r>  -11.7571    1.0000 </r>
       <r>  -11.5760    1.0000 </r>
       <r>   -0.4587    1.0000 </r>
       <r>    0.2100    1.0000 </r>
       <r>    0.3807    1.0000 </r>
       <r>    0.8674    1.0000 </r>
       <r>    1.1136    1.0000 </r>
       <r>    1.9747    1.0000 </r>
       <r>    2.4155    1.0000 </r>
       <r>    2.7235    1.0000 </r>
       <r>    2.8658    1.0000 </r>
       <r>    3.8090    1.0000 </r>
       <r>    3.8246    1.0000 </r>
       <r>    4.4226    1.0000 </r>
       <r>    7.1446    0.0000 </r>
       <r>    7.2899    0.0000 </r>
       <r>    7.6162    0.0000 </r>
       <r>    7.9455    0.0000 </r>
       <r>    7.9751    0.0000 </r>
       <r>    8.9999    0.0000 </r>
       <r>    9.9966    0.0000 </r>
       <r>   10.7240    0.0000 </r>
       <r>   11.2107    0.0000 </r>
       <r>   11.9657    0.0000 </r>
       <r>   14.3253    0.0000 </r>
       <r>   17.1784    0.0000 </r>
      </set>
      <set comment="kpoint 11">
       <r>  -52.0114    1.0000 </r>
       <r>  -52.0076    1.0000 </r>
       <r>  -28.3185    1.0000 </r>
       <r>  -28.2882    1.0000 </r>
       <r>  -28.2378    1.0000 </r>
       <r>  -28.2113    1.0000 </r>
       <r>  -28.1868    1.0000 </r>
       <r>  -28.1768    1.0000 </r>
       <r>  -12.6282    1.0000 </r>
       <r>  -12.2938    1.0000 </r>
       <r>  -11.7597    1.0000 </r>
       <r>  -11.6551    1.0000 </r>
       <r>   -0.2570    1.0000 </r>
       <r>    0.1635    1.0000 </r>
       <r>    0.5554    1.0000 </r>
       <r>    0.7379    1.0000 </r>
       <r>    1.5936    1.0000 </r>
       <r>    2.0769    1.0000 </r>
       <r>    2.3293    1.0000 </r>
       <r>    2.5531    1.0000 </r>
       <r>    2.8347    1.0000 </r>
       <r>    3.2184    1.0000 </r>
       <r>    3.7989    1.0000 </r>
       <r>    4.0829    1.0000 </r>
       <r>    7.3236    0.0000 </r>
       <r>    7.5215    0.0000 </r>
       <r>    7.6249    0.0000 </r>
       <r>    7.9464    0.0000 </r>
       <r>    8.2679    0.0000 </r>
       <r>    8.6623    0.0000 </r>
       <r>   10.4463    0.0000 </r>
       <r>   10.7169    0.0000 </r>
       <r>   11.1254    0.0000 </r>
       <r>   11.4887    0.0000 </r>
       <r>   15.3189    0.0000 </r>
       <r>   16.4172    0.0000 </r>
      </set>
      <set comment="kpoint 12">
       <r>  -52.0105    1.0000 </r>
       <r>  -52.0087    1.0000 </r>
       <r>  -28.3341    1.0000 </r>
       <r>  -28.3223    1.0000 </r>
       <r>  -28.2139    1.0000 </r>
       <r>  -28.2055    1.0000 </r>
       <r>  -28.1759    1.0000 </r>
       <r>  -28.1691    1.0000 </r>
       <r>  -12.5506    1.0000 </r>
       <r>  -12.4267    1.0000 </r>
       <r>  -11.6955    1.0000 </r>
       <r>  -11.6447    1.0000 </r>
       <r>   -0.4409    1.0000 </r>
       <r>   -0.2474    1.0000 </r>
       <r>    0.5146    1.0000 </r>
       <r>    0.5936    1.0000 </r>
       <r>    2.1313    1.0000 </r>
       <r>    2.4967    1.0000 </r>
       <r>    2.7995    1.0000 </r>
       <r>    2.8773    1.0000 </r>
       <r>    2.9470    1.0000 </r>
       <r>    3.3201    1.0000 </r>
       <r>    3.3522    1.0000 </r>
       <r>    3.6476    1.0000 </r>
       <r>    7.1146    0.0000 </r>
       <r>    7.3520    0.0000 </r>
       <r>    7.5108    0.0000 </r>
       <r>    7.6653    0.0000 </r>
       <r>    8.4307    0.0000 </r>
       <r>    8.5806    0.0000 </r>
       <r>   10.6908    0.0000 </r>
       <r>   10.8682    0.0000 </r>
       <r>   11.2071    0.0000 </r>
       <r>   11.2249    0.0000 </r>
       <r>   16.0229    0.0000 </r>
       <r>   16.5965    0.0000 </r>
      </set>
      <set comment="kpoint 13">
       <r>  -51.9979    1.0000 </r>
       <r>  -51.9867    1.0000 </r>
       <r>  -28.4099    1.0000 </r>
       <r>  -28.3912    1.0000 </r>
       <r>  -28.2696    1.0000 </r>
       <r>  -28.2696    1.0000 </r>
       <r>  -28.1699    1.0000 </r>
       <r>  -28.1699    1.0000 </r>
       <r>  -12.6142    1.0000 </r>
       <r>  -11.8286    1.0000 </r>
       <r>  -11.7491    1.0000 </r>
       <r>  -11.7491    1.0000 </r>
       <r>    0.0843    1.0000 </r>
       <r>    0.2090    1.0000 </r>
       <r>    0.7824    1.0000 </r>
       <r>    0.7824    1.0000 </r>
       <r>    0.8488    1.0000 </r>
       <r>    1.3318    1.0000 </r>
       <r>    2.1259    1.0000 </r>
       <r>    3.1434    1.0000 </r>
       <r>    3.1434    1.0000 </r>
       <r>    3.2049    1.0000 </r>
       <r>    3.2049    1.0000 </r>
       <r>    4.2087    1.0000 </r>
       <r>    7.1464    0.0000 </r>
       <r>    7.4913    0.0000 </r>
       <r>    7.8571    0.0000 </r>
       <r>    8.1355    0.0000 </r>
       <r>    8.1355    0.0000 </r>
       <r>    8.8482    0.0000 </r>
       <r>   10.0918    0.0000 </r>
       <r>   10.9056    0.0000 </r>
       <r>   10.9056    0.0000 </r>
       <r>   11.4077    0.0000 </r>
       <r>   14.8990    0.0000 </r>
       <r>   18.9748    0.0000 </r>
      </set>
      <set comment="kpoint 14">
       <r>  -51.9969    1.0000 </r>
       <r>  -51.9876    1.0000 </r>
       <r>  -28.4141    1.0000 </r>
       <r>  -28.3980    1.0000 </r>
       <r>  -28.2589    1.0000 </r>
       <r>  -28.2559    1.0000 </r>
       <r>  -28.1782    1.0000 </r>
       <r>  -28.1760    1.0000 </r>
       <r>  -12.5366    1.0000 </r>
       <r>  -11.8898    1.0000 </r>
       <r>  -11.7688    1.0000 </r>
       <r>  -11.7575    1.0000 </r>
       <r>    0.1629    1.0000 </r>
       <r>    0.3809    1.0000 </r>
       <r>    0.5142    1.0000 </r>
       <r>    0.7201    1.0000 </r>
       <r>    1.2787    1.0000 </r>
       <r>    1.5015    1.0000 </r>
       <r>    1.6775    1.0000 </r>
       <r>    2.8986    1.0000 </r>
       <r>    2.9526    1.0000 </r>
       <r>    3.3313    1.0000 </r>
       <r>    3.3737    1.0000 </r>
       <r>    4.2632    1.0000 </r>
       <r>    7.0309    0.0000 </r>
       <r>    7.6979    0.0000 </r>
       <r>    7.9400    0.0000 </r>
       <r>    7.9422    0.0000 </r>
       <r>    8.2909    0.0000 </r>
       <r>    8.7917    0.0000 </r>
       <r>   10.1597    0.0000 </r>
       <r>   10.3989    0.0000 </r>
       <r>   10.9612    0.0000 </r>
       <r>   11.7799    0.0000 </r>
       <r>   15.1731    0.0000 </r>
       <r>   18.2111    0.0000 </r>
      </set>
      <set comment="kpoint 15">
       <r>  -51.9940    1.0000 </r>
       <r>  -51.9902    1.0000 </r>
       <r>  -28.4173    1.0000 </r>
       <r>  -28.4107    1.0000 </r>
       <r>  -28.2343    1.0000 </r>
       <r>  -28.2284    1.0000 </r>
       <r>  -28.1987    1.0000 </r>
       <r>  -28.1936    1.0000 </r>
       <r>  -12.3339    1.0000 </r>
       <r>  -12.0847    1.0000 </r>
       <r>  -11.7799    1.0000 </r>
       <r>  -11.7731    1.0000 </r>
       <r>    0.4142    1.0000 </r>
       <r>    0.4757    1.0000 </r>
       <r>    0.5651    1.0000 </r>
       <r>    0.7490    1.0000 </r>
       <r>    1.1250    1.0000 </r>
       <r>    1.4084    1.0000 </r>
       <r>    1.9543    1.0000 </r>
       <r>    2.4252    1.0000 </r>
       <r>    2.7402    1.0000 </r>
       <r>    3.2192    1.0000 </r>
       <r>    3.7700    1.0000 </r>
       <r>    4.1234    1.0000 </r>
       <r>    7.1367    0.0000 </r>
       <r>    7.5362    0.0000 </r>
       <r>    8.0372    0.0000 </r>
       <r>    8.0854    0.0000 </r>
       <r>    8.5263    0.0000 </r>
       <r>    8.6490    0.0000 </r>
       <r>    9.9555    0.0000 </r>
       <r>   10.0085    0.0000 </r>
       <r>   11.3808    0.0000 </r>
       <r>   11.8147    0.0000 </r>
       <r>   15.9719    0.0000 </r>
       <r>   17.0799    0.0000 </r>
      </set>
      <set comment="kpoint 16">
       <r>  -51.9959    1.0000 </r>
       <r>  -51.9884    1.0000 </r>
       <r>  -28.4153    1.0000 </r>
       <r>  -28.3992    1.0000 </r>
       <r>  -28.2726    1.0000 </r>
       <r>  -28.2292    1.0000 </r>
       <r>  -28.1977    1.0000 </r>
       <r>  -28.1683    1.0000 </r>
       <r>  -12.4671    1.0000 </r>
       <r>  -11.9287    1.0000 </r>
       <r>  -11.7870    1.0000 </r>
       <r>  -11.7738    1.0000 </r>
       <r>    0.0991    1.0000 </r>
       <r>    0.3650    1.0000 </r>
       <r>    0.5594    1.0000 </r>
       <r>    0.7149    1.0000 </r>
       <r>    1.2504    1.0000 </r>
       <r>    1.6419    1.0000 </r>
       <r>    1.7872    1.0000 </r>
       <r>    2.5824    1.0000 </r>
       <r>    3.0657    1.0000 </r>
       <r>    3.1943    1.0000 </r>
       <r>    3.5871    1.0000 </r>
       <r>    4.2744    1.0000 </r>
       <r>    7.0141    0.0000 </r>
       <r>    7.6358    0.0000 </r>
       <r>    7.9088    0.0000 </r>
       <r>    8.1899    0.0000 </r>
       <r>    8.1908    0.0000 </r>
       <r>    8.7483    0.0000 </r>
       <r>    9.9200    0.0000 </r>
       <r>   10.6444    0.0000 </r>
       <r>   10.9010    0.0000 </r>
       <r>   11.8121    0.0000 </r>
       <r>   15.4192    0.0000 </r>
       <r>   18.0760    0.0000 </r>
      </set>
      <set comment="kpoint 17">
       <r>  -51.9936    1.0000 </r>
       <r>  -51.9906    1.0000 </r>
       <r>  -28.4137    1.0000 </r>
       <r>  -28.4063    1.0000 </r>
       <r>  -28.2619    1.0000 </r>
       <r>  -28.2345    1.0000 </r>
       <r>  -28.1934    1.0000 </r>
       <r>  -28.1744    1.0000 </r>
       <r>  -12.2895    1.0000 </r>
       <r>  -12.0774    1.0000 </r>
       <r>  -11.8038    1.0000 </r>
       <r>  -11.7942    1.0000 </r>
       <r>    0.2023    1.0000 </r>
       <r>    0.3246    1.0000 </r>
       <r>    0.4280    1.0000 </r>
       <r>    0.6272    1.0000 </r>
       <r>    1.2557    1.0000 </r>
       <r>    1.6625    1.0000 </r>
       <r>    2.1971    1.0000 </r>
       <r>    2.6024    1.0000 </r>
       <r>    2.9036    1.0000 </r>
       <r>    3.1260    1.0000 </r>
       <r>    3.7299    1.0000 </r>
       <r>    4.0764    1.0000 </r>
       <r>    7.2188    0.0000 </r>
       <r>    7.6104    0.0000 </r>
       <r>    7.8396    0.0000 </r>
       <r>    8.0743    0.0000 </r>
       <r>    8.3660    0.0000 </r>
       <r>    8.5679    0.0000 </r>
       <r>    9.9810    0.0000 </r>
       <r>   10.4078    0.0000 </r>
       <r>   11.2504    0.0000 </r>
       <r>   11.6750    0.0000 </r>
       <r>   16.1106    0.0000 </r>
       <r>   17.0968    0.0000 </r>
      </set>
      <set comment="kpoint 18">
       <r>  -51.9923    1.0000 </r>
       <r>  -51.9914    1.0000 </r>
       <r>  -28.4052    1.0000 </r>
       <r>  -28.4007    1.0000 </r>
       <r>  -28.2775    1.0000 </r>
       <r>  -28.2645    1.0000 </r>
       <r>  -28.1728    1.0000 </r>
       <r>  -28.1657    1.0000 </r>
       <r>  -12.1827    1.0000 </r>
       <r>  -12.0914    1.0000 </r>
       <r>  -11.8454    1.0000 </r>
       <r>  -11.8319    1.0000 </r>
       <r>    0.0830    1.0000 </r>
       <r>    0.1819    1.0000 </r>
       <r>    0.1858    1.0000 </r>
       <r>    0.2955    1.0000 </r>
       <r>    1.6467    1.0000 </r>
       <r>    1.8526    1.0000 </r>
       <r>    2.6152    1.0000 </r>
       <r>    2.7772    1.0000 </r>
       <r>    3.0727    1.0000 </r>
       <r>    3.1811    1.0000 </r>
       <r>    3.6256    1.0000 </r>
       <r>    3.8860    1.0000 </r>
       <r>    7.5144    0.0000 </r>
       <r>    7.6518    0.0000 </r>
       <r>    7.8069    0.0000 </r>
       <r>    7.8968    0.0000 </r>
       <r>    8.0565    0.0000 </r>
       <r>    8.3074    0.0000 </r>
       <r>   10.4136    0.0000 </r>
       <r>   10.8918    0.0000 </r>
       <r>   10.9162    0.0000 </r>
       <r>   11.3352    0.0000 </r>
       <r>   16.4724    0.0000 </r>
       <r>   16.9158    0.0000 </r>
      </set>
      <set comment="kpoint 19">
       <r>  -51.9803    1.0000 </r>
       <r>  -51.9767    1.0000 </r>
       <r>  -28.5543    1.0000 </r>
       <r>  -28.5480    1.0000 </r>
       <r>  -28.2154    1.0000 </r>
       <r>  -28.2154    1.0000 </r>
       <r>  -28.1758    1.0000 </r>
       <r>  -28.1758    1.0000 </r>
       <r>  -12.0686    1.0000 </r>
       <r>  -11.9223    1.0000 </r>
       <r>  -11.9223    1.0000 </r>
       <r>  -11.7760    1.0000 </r>
       <r>    0.3796    1.0000 </r>
       <r>    0.4142    1.0000 </r>
       <r>    1.0519    1.0000 </r>
       <r>    1.0519    1.0000 </r>
       <r>    1.1142    1.0000 </r>
       <r>    1.3994    1.0000 </r>
       <r>    1.8896    1.0000 </r>
       <r>    2.2774    1.0000 </r>
       <r>    2.2774    1.0000 </r>
       <r>    3.1164    1.0000 </r>
       <r>    3.4304    1.0000 </r>
       <r>    3.4304    1.0000 </r>
       <r>    7.5536    0.0000 </r>
       <r>    7.8649    0.0000 </r>
       <r>    8.1718    0.0000 </r>
       <r>    8.2009    0.0000 </r>
       <r>    8.4976    0.0000 </r>
       <r>    8.4976    0.0000 </r>
       <r>   10.3417    0.0000 </r>
       <r>   10.5926    0.0000 </r>
       <r>   10.8952    0.0000 </r>
       <r>   10.8952    0.0000 </r>
       <r>   16.5910    0.0000 </r>
       <r>   18.1483    0.0000 </r>
      </set>
      <set comment="kpoint 20">
       <r>  -51.9799    1.0000 </r>
       <r>  -51.9766    1.0000 </r>
       <r>  -28.5579    1.0000 </r>
       <r>  -28.5527    1.0000 </r>
       <r>  -28.2104    1.0000 </r>
       <r>  -28.2087    1.0000 </r>
       <r>  -28.1784    1.0000 </r>
       <r>  -28.1768    1.0000 </r>
       <r>  -12.1803    1.0000 </r>
       <r>  -12.0698    1.0000 </r>
       <r>  -11.7742    1.0000 </r>
       <r>  -11.6473    1.0000 </r>
       <r>    0.2346    1.0000 </r>
       <r>    0.3278    1.0000 </r>
       <r>    0.6127    1.0000 </r>
       <r>    0.8647    1.0000 </r>
       <r>    1.3692    1.0000 </r>
       <r>    1.6176    1.0000 </r>
       <r>    2.1311    1.0000 </r>
       <r>    2.4731    1.0000 </r>
       <r>    2.4796    1.0000 </r>
       <r>    3.2577    1.0000 </r>
       <r>    3.3349    1.0000 </r>
       <r>    3.4407    1.0000 </r>
       <r>    7.2536    0.0000 </r>
       <r>    7.7498    0.0000 </r>
       <r>    7.9349    0.0000 </r>
       <r>    8.1640    0.0000 </r>
       <r>    8.6201    0.0000 </r>
       <r>    8.6678    0.0000 </r>
       <r>   10.0928    0.0000 </r>
       <r>   10.1504    0.0000 </r>
       <r>   11.2691    0.0000 </r>
       <r>   11.5148    0.0000 </r>
       <r>   16.6157    0.0000 </r>
       <r>   17.9720    0.0000 </r>
      </set>
      <set comment="kpoint 21">
       <r>  -51.9787    1.0000 </r>
       <r>  -51.9774    1.0000 </r>
       <r>  -28.5627    1.0000 </r>
       <r>  -28.5607    1.0000 </r>
       <r>  -28.1994    1.0000 </r>
       <r>  -28.1956    1.0000 </r>
       <r>  -28.1853    1.0000 </r>
       <r>  -28.1816    1.0000 </r>
       <r>  -12.2540    1.0000 </r>
       <r>  -12.2141    1.0000 </r>
       <r>  -11.6143    1.0000 </r>
       <r>  -11.5638    1.0000 </r>
       <r>   -0.0673    1.0000 </r>
       <r>    0.0036    1.0000 </r>
       <r>    0.7078    1.0000 </r>
       <r>    0.8506    1.0000 </r>
       <r>    1.4337    1.0000 </r>
       <r>    1.7961    1.0000 </r>
       <r>    2.1041    1.0000 </r>
       <r>    2.5381    1.0000 </r>
       <r>    2.9673    1.0000 </r>
       <r>    3.0047    1.0000 </r>
       <r>    3.5442    1.0000 </r>
       <r>    3.8872    1.0000 </r>
       <r>    6.8437    0.0000 </r>
       <r>    7.0882    0.0000 </r>
       <r>    8.0581    0.0000 </r>
       <r>    8.1384    0.0000 </r>
       <r>    8.7476    0.0000 </r>
       <r>    8.7591    0.0000 </r>
       <r>    9.8154    0.0000 </r>
       <r>    9.8962    0.0000 </r>
       <r>   11.8245    0.0000 </r>
       <r>   11.9725    0.0000 </r>
       <r>   16.8737    0.0000 </r>
       <r>   17.4574    0.0000 </r>
      </set>
      <set comment="kpoint 22">
       <r>  -51.9795    1.0000 </r>
       <r>  -51.9768    1.0000 </r>
       <r>  -28.5611    1.0000 </r>
       <r>  -28.5517    1.0000 </r>
       <r>  -28.2169    1.0000 </r>
       <r>  -28.1965    1.0000 </r>
       <r>  -28.1840    1.0000 </r>
       <r>  -28.1756    1.0000 </r>
       <r>  -12.2479    1.0000 </r>
       <r>  -11.9548    1.0000 </r>
       <r>  -11.8857    1.0000 </r>
       <r>  -11.5733    1.0000 </r>
       <r>    0.0209    1.0000 </r>
       <r>    0.5592    1.0000 </r>
       <r>    0.6043    1.0000 </r>
       <r>    0.6466    1.0000 </r>
       <r>    0.9350    1.0000 </r>
       <r>    2.0869    1.0000 </r>
       <r>    2.2045    1.0000 </r>
       <r>    2.4502    1.0000 </r>
       <r>    2.5855    1.0000 </r>
       <r>    3.2155    1.0000 </r>
       <r>    3.4478    1.0000 </r>
       <r>    3.6730    1.0000 </r>
       <r>    7.0672    0.0000 </r>
       <r>    7.8449    0.0000 </r>
       <r>    7.9674    0.0000 </r>
       <r>    8.0950    0.0000 </r>
       <r>    8.2638    0.0000 </r>
       <r>    8.8730    0.0000 </r>
       <r>    9.7594    0.0000 </r>
       <r>   10.7123    0.0000 </r>
       <r>   10.8910    0.0000 </r>
       <r>   11.8281    0.0000 </r>
       <r>   16.5939    0.0000 </r>
       <r>   17.9869    0.0000 </r>
      </set>
      <set comment="kpoint 23">
       <r>  -51.9786    1.0000 </r>
       <r>  -51.9775    1.0000 </r>
       <r>  -28.5610    1.0000 </r>
       <r>  -28.5556    1.0000 </r>
       <r>  -28.2118    1.0000 </r>
       <r>  -28.1988    1.0000 </r>
       <r>  -28.1828    1.0000 </r>
       <r>  -28.1772    1.0000 </r>
       <r>  -12.2393    1.0000 </r>
       <r>  -12.1191    1.0000 </r>
       <r>  -11.7094    1.0000 </r>
       <r>  -11.5786    1.0000 </r>
       <r>   -0.1024    1.0000 </r>
       <r>    0.0852    1.0000 </r>
       <r>    0.6498    1.0000 </r>
       <r>    0.7645    1.0000 </r>
       <r>    1.1321    1.0000 </r>
       <r>    1.7627    1.0000 </r>
       <r>    2.2532    1.0000 </r>
       <r>    2.3477    1.0000 </r>
       <r>    3.0345    1.0000 </r>
       <r>    3.3175    1.0000 </r>
       <r>    3.7157    1.0000 </r>
       <r>    4.0036    1.0000 </r>
       <r>    6.9171    0.0000 </r>
       <r>    7.2911    0.0000 </r>
       <r>    8.0491    0.0000 </r>
       <r>    8.1122    0.0000 </r>
       <r>    8.4332    0.0000 </r>
       <r>    8.7449    0.0000 </r>
       <r>    9.8396    0.0000 </r>
       <r>   10.2528    0.0000 </r>
       <r>   11.4964    0.0000 </r>
       <r>   11.9025    0.0000 </r>
       <r>   16.7553    0.0000 </r>
       <r>   17.4125    0.0000 </r>
      </set>
      <set comment="kpoint 24">
       <r>  -51.9781    1.0000 </r>
       <r>  -51.9778    1.0000 </r>
       <r>  -28.5542    1.0000 </r>
       <r>  -28.5509    1.0000 </r>
       <r>  -28.2193    1.0000 </r>
       <r>  -28.2130    1.0000 </r>
       <r>  -28.1770    1.0000 </r>
       <r>  -28.1754    1.0000 </r>
       <r>  -12.1310    1.0000 </r>
       <r>  -12.0070    1.0000 </r>
       <r>  -11.8185    1.0000 </r>
       <r>  -11.6889    1.0000 </r>
       <r>   -0.0373    1.0000 </r>
       <r>    0.1768    1.0000 </r>
       <r>    0.3759    1.0000 </r>
       <r>    0.5135    1.0000 </r>
       <r>    1.2216    1.0000 </r>
       <r>    1.5042    1.0000 </r>
       <r>    2.2165    1.0000 </r>
       <r>    2.2652    1.0000 </r>
       <r>    3.3787    1.0000 </r>
       <r>    3.5083    1.0000 </r>
       <r>    4.0173    1.0000 </r>
       <r>    4.1547    1.0000 </r>
       <r>    7.2114    0.0000 </r>
       <r>    7.5988    0.0000 </r>
       <r>    8.0052    0.0000 </r>
       <r>    8.0549    0.0000 </r>
       <r>    8.1040    0.0000 </r>
       <r>    8.4127    0.0000 </r>
       <r>   10.2365    0.0000 </r>
       <r>   10.8639    0.0000 </r>
       <r>   10.8776    0.0000 </r>
       <r>   11.4975    0.0000 </r>
       <r>   16.6107    0.0000 </r>
       <r>   16.9114    0.0000 </r>
      </set>
     </set>
    </set>
   </array>
  </eigenvalues>
  <separator name="orbital magnetization" >
   <v name="MAGDIPOLOUT">      0.00000000      0.00000000      0.00000000</v>
  </separator>
  <dos>
   <i name="efermi">      4.95211284 </i>
   <total>
    <array>
     <dimension dim="1">gridpoints</dimension>
     <dimension dim="2">spin</dimension>
     <field>energy</field>
     <field>total</field>
     <field>integrated</field>
     <set>
      <set comment="spin 1">
       <r>   -55.5761     0.0000     0.0000 </r>
       <r>   -55.3158     0.0000     0.0000 </r>
       <r>   -55.0555     0.0000     0.0000 </r>
       <r>   -54.7951     0.0000     0.0000 </r>
       <r>   -54.5348     0.0000     0.0000 </r>
       <r>   -54.2745     0.0000     0.0000 </r>
       <r>   -54.0141     0.0000     0.0000 </r>
       <r>   -53.7538     0.0000     0.0000 </r>
       <r>   -53.4934     0.0000     0.0000 </r>
       <r>   -53.2331     0.0000     0.0000 </r>
       <r>   -52.9728     0.0000     0.0000 </r>
       <r>   -52.7124     0.0000     0.0000 </r>
       <r>   -52.4521     0.0000     0.0000 </r>
       <r>   -52.1918     0.0000     0.0000 </r>
       <r>   -51.9314    11.5455     4.0000 </r>
       <r>   -51.6711     0.0000     4.0000 </r>
       <r>   -51.4107     0.0000     4.0000 </r>
       <r>   -51.1504     0.0000     4.0000 </r>
       <r>   -50.8901     0.0000     4.0000 </r>
       <r>   -50.6297     0.0000     4.0000 </r>
       <r>   -50.3694     0.0000     4.0000 </r>
       <r>   -50.1091     0.0000     4.0000 </r>
       <r>   -49.8487     0.0000     4.0000 </r>
       <r>   -49.5884     0.0000     4.0000 </r>
       <r>   -49.3281     0.0000     4.0000 </r>
       <r>   -49.0677     0.0000     4.0000 </r>
       <r>   -48.8074     0.0000     4.0000 </r>
       <r>   -48.5470     0.0000     4.0000 </r>
       <r>   -48.2867     0.0000     4.0000 </r>
       <r>   -48.0264     0.0000     4.0000 </r>
       <r>   -47.7660     0.0000     4.0000 </r>
       <r>   -47.5057     0.0000     4.0000 </r>
       <r>   -47.2454     0.0000     4.0000 </r>
       <r>   -46.9850     0.0000     4.0000 </r>
       <r>   -46.7247     0.0000     4.0000 </r>
       <r>   -46.4644     0.0000     4.0000 </r>
       <r>   -46.2040     0.0000     4.0000 </r>
       <r>   -45.9437     0.0000     4.0000 </r>
       <r>   -45.6833     0.0000     4.0000 </r>
       <r>   -45.4230     0.0000     4.0000 </r>
       <r>   -45.1627     0.0000     4.0000 </r>
       <r>   -44.9023     0.0000     4.0000 </r>
       <r>   -44.6420     0.0000     4.0000 </r>
       <r>   -44.3817     0.0000     4.0000 </r>
       <r>   -44.1213     0.0000     4.0000 </r>
       <r>   -43.8610     0.0000     4.0000 </r>
       <r>   -43.6007     0.0000     4.0000 </r>
       <r>   -43.3403     0.0000     4.0000 </r>
       <r>   -43.0800     0.0000     4.0000 </r>
       <r>   -42.8196     0.0000     4.0000 </r>
       <r>   -42.5593     0.0000     4.0000 </r>
       <r>   -42.2990     0.0000     4.0000 </r>
       <r>   -42.0386     0.0000     4.0000 </r>
       <r>   -41.7783     0.0000     4.0000 </r>
       <r>   -41.5180     0.0000     4.0000 </r>
       <r>   -41.2576     0.0000     4.0000 </r>
       <r>   -40.9973     0.0000     4.0000 </r>
       <r>   -40.7370     0.0000     4.0000 </r>
       <r>   -40.4766     0.0000     4.0000 </r>
       <r>   -40.2163     0.0000     4.0000 </r>
       <r>   -39.9559     0.0000     4.0000 </r>
       <r>   -39.6956     0.0000     4.0000 </r>
       <r>   -39.4353     0.0000     4.0000 </r>
       <r>   -39.1749     0.0000     4.0000 </r>
       <r>   -38.9146     0.0000     4.0000 </r>
       <r>   -38.6543     0.0000     4.0000 </r>
       <r>   -38.3939     0.0000     4.0000 </r>
       <r>   -38.1336     0.0000     4.0000 </r>
       <r>   -37.8732     0.0000     4.0000 </r>
       <r>   -37.6129     0.0000     4.0000 </r>
       <r>   -37.3526     0.0000     4.0000 </r>
       <r>   -37.0922     0.0000     4.0000 </r>
       <r>   -36.8319     0.0000     4.0000 </r>
       <r>   -36.5716     0.0000     4.0000 </r>
       <r>   -36.3112     0.0000     4.0000 </r>
       <r>   -36.0509     0.0000     4.0000 </r>
       <r>   -35.7906     0.0000     4.0000 </r>
       <r>   -35.5302     0.0000     4.0000 </r>
       <r>   -35.2699     0.0000     4.0000 </r>
       <r>   -35.0095     0.0000     4.0000 </r>
       <r>   -34.7492     0.0000     4.0000 </r>
       <r>   -34.4889     0.0000     4.0000 </r>
       <r>   -34.2285     0.0000     4.0000 </r>
       <r>   -33.9682     0.0000     4.0000 </r>
       <r>   -33.7079     0.0000     4.0000 </r>
       <r>   -33.4475     0.0000     4.0000 </r>
       <r>   -33.1872     0.0000     4.0000 </r>
       <r>   -32.9269     0.0000     4.0000 </r>
       <r>   -32.6665     0.0000     4.0000 </r>
       <r>   -32.4062     0.0000     4.0000 </r>
       <r>   -32.1458     0.0000     4.0000 </r>
       <r>   -31.8855     0.0000     4.0000 </r>
       <r>   -31.6252     0.0000     4.0000 </r>
       <r>   -31.3648     0.0000     4.0000 </r>
       <r>   -31.1045     0.0000     4.0000 </r>
       <r>   -30.8442     0.0000     4.0000 </r>
       <r>   -30.5838     0.0000     4.0000 </r>
       <r>   -30.3235     0.0000     4.0000 </r>
       <r>   -30.0632     0.0000     4.0000 </r>
       <r>   -29.8028     0.0000     4.0000 </r>
       <r>   -29.5425     0.0000     4.0000 </r>
       <r>   -29.2821     0.0000     4.0000 </r>
       <r>   -29.0218     0.0000     4.0000 </r>
       <r>   -28.7615     0.0000     4.0000 </r>
       <r>   -28.5011     4.3899     5.1429 </r>
       <r>   -28.2408     7.6732     8.9462 </r>
       <r>   -27.9805     0.0000    16.0000 </r>
       <r>   -27.7201     0.0000    16.0000 </r>
       <r>   -27.4598     0.0000    16.0000 </r>
       <r>   -27.1995     0.0000    16.0000 </r>
       <r>   -26.9391     0.0000    16.0000 </r>
       <r>   -26.6788     0.0000    16.0000 </r>
       <r>   -26.4184     0.0000    16.0000 </r>
       <r>   -26.1581     0.0000    16.0000 </r>
       <r>   -25.8978     0.0000    16.0000 </r>
       <r>   -25.6374     0.0000    16.0000 </r>
       <r>   -25.3771     0.0000    16.0000 </r>
       <r>   -25.1168     0.0000    16.0000 </r>
       <r>   -24.8564     0.0000    16.0000 </r>
       <r>   -24.5961     0.0000    16.0000 </r>
       <r>   -24.3357     0.0000    16.0000 </r>
       <r>   -24.0754     0.0000    16.0000 </r>
       <r>   -23.8151     0.0000    16.0000 </r>
       <r>   -23.5547     0.0000    16.0000 </r>
       <r>   -23.2944     0.0000    16.0000 </r>
       <r>   -23.0341     0.0000    16.0000 </r>
       <r>   -22.7737     0.0000    16.0000 </r>
       <r>   -22.5134     0.0000    16.0000 </r>
       <r>   -22.2531     0.0000    16.0000 </r>
       <r>   -21.9927     0.0000    16.0000 </r>
       <r>   -21.7324     0.0000    16.0000 </r>
       <r>   -21.4720     0.0000    16.0000 </r>
       <r>   -21.2117     0.0000    16.0000 </r>
       <r>   -20.9514     0.0000    16.0000 </r>
       <r>   -20.6910     0.0000    16.0000 </r>
       <r>   -20.4307     0.0000    16.0000 </r>
       <r>   -20.1704     0.0000    16.0000 </r>
       <r>   -19.9100     0.0000    16.0000 </r>
       <r>   -19.6497     0.0000    16.0000 </r>
       <r>   -19.3894     0.0000    16.0000 </r>
       <r>   -19.1290     0.0000    16.0000 </r>
       <r>   -18.8687     0.0000    16.0000 </r>
       <r>   -18.6083     0.0000    16.0000 </r>
       <r>   -18.3480     0.0000    16.0000 </r>
       <r>   -18.0877     0.0000    16.0000 </r>
       <r>   -17.8273     0.0000    16.0000 </r>
       <r>   -17.5670     0.0000    16.0000 </r>
       <r>   -17.3067     0.0000    16.0000 </r>
       <r>   -17.0463     0.0000    16.0000 </r>
       <r>   -16.7860     0.0000    16.0000 </r>
       <r>   -16.5257     0.0000    16.0000 </r>
       <r>   -16.2653     0.0000    16.0000 </r>
       <r>   -16.0050     0.0000    16.0000 </r>
       <r>   -15.7446     0.0000    16.0000 </r>
       <r>   -15.4843     0.0000    16.0000 </r>
       <r>   -15.2240     0.0000    16.0000 </r>
       <r>   -14.9636     0.0000    16.0000 </r>
       <r>   -14.7033     0.0000    16.0000 </r>
       <r>   -14.4430     0.0000    16.0000 </r>
       <r>   -14.1826     0.0000    16.0000 </r>
       <r>   -13.9223     0.0000    16.0000 </r>
       <r>   -13.6620     0.0000    16.0000 </r>
       <r>   -13.4016     0.0000    16.0000 </r>
       <r>   -13.1413     0.1772    16.0576 </r>
       <r>   -12.8809     0.3478    16.3077 </r>
       <r>   -12.6206     0.9704    16.7441 </r>
       <r>   -12.3603     0.5238    17.3364 </r>
       <r>   -12.0999     1.3168    18.9142 </r>
       <r>   -11.8396     1.0356    20.1782 </r>
       <r>   -11.5793     2.8353    23.2981 </r>
       <r>   -11.3189     0.0000    24.0000 </r>
       <r>   -11.0586     0.0000    24.0000 </r>
       <r>   -10.7982     0.0000    24.0000 </r>
       <r>   -10.5379     0.0000    24.0000 </r>
       <r>   -10.2776     0.0000    24.0000 </r>
       <r>   -10.0172     0.0000    24.0000 </r>
       <r>    -9.7569     0.0000    24.0000 </r>
       <r>    -9.4966     0.0000    24.0000 </r>
       <r>    -9.2362     0.0000    24.0000 </r>
       <r>    -8.9759     0.0000    24.0000 </r>
       <r>    -8.7156     0.0000    24.0000 </r>
       <r>    -8.4552     0.0000    24.0000 </r>
       <r>    -8.1949     0.0000    24.0000 </r>
       <r>    -7.9345     0.0000    24.0000 </r>
       <r>    -7.6742     0.0000    24.0000 </r>
       <r>    -7.4139     0.0000    24.0000 </r>
       <r>    -7.1535     0.0000    24.0000 </r>
       <r>    -6.8932     0.0000    24.0000 </r>
       <r>    -6.6329     0.0000    24.0000 </r>
       <r>    -6.3725     0.0000    24.0000 </r>
       <r>    -6.1122     0.0000    24.0000 </r>
       <r>    -5.8519     0.0000    24.0000 </r>
       <r>    -5.5915     0.0000    24.0000 </r>
       <r>    -5.3312     0.0000    24.0000 </r>
       <r>    -5.0708     0.0000    24.0000 </r>
       <r>    -4.8105     0.0000    24.0000 </r>
       <r>    -4.5502     0.0000    24.0000 </r>
       <r>    -4.2898     0.0000    24.0000 </r>
       <r>    -4.0295     0.0000    24.0000 </r>
       <r>    -3.7692     0.0000    24.0000 </r>
       <r>    -3.5088     0.0000    24.0000 </r>
       <r>    -3.2485     0.0000    24.0000 </r>
       <r>    -2.9882     0.0000    24.0000 </r>
       <r>    -2.7278     0.0000    24.0000 </r>
       <r>    -2.4675     0.0000    24.0000 </r>
       <r>    -2.2071     0.0000    24.0000 </r>
       <r>    -1.9468     0.0000    24.0000 </r>
       <r>    -1.6865     0.0000    24.0000 </r>
       <r>    -1.4261     0.0000    24.0000 </r>
       <r>    -1.1658     0.0000    24.0000 </r>
       <r>    -0.9055     0.0018    24.0005 </r>
       <r>    -0.6451     0.4009    24.1158 </r>
       <r>    -0.3848     0.7975    24.5276 </r>
       <r>    -0.1244     0.1765    24.9831 </r>
       <r>     0.1359     1.8438    26.2972 </r>
       <r>     0.3962     2.8881    28.2376 </r>
       <r>     0.6566     2.6613    30.0985 </r>
       <r>     0.9169     1.3188    31.5319 </r>
       <r>     1.1772     2.7218    32.8571 </r>
       <r>     1.4376     1.3903    33.6991 </r>
       <r>     1.6979     1.7593    34.6866 </r>
       <r>     1.9582     0.5170    35.5517 </r>
       <r>     2.2186     1.8993    36.9173 </r>
       <r>     2.4789     1.6728    38.4126 </r>
       <r>     2.7393     1.0302    39.7082 </r>
       <r>     2.9996     1.3124    41.0731 </r>
       <r>     3.2599     2.5015    42.7770 </r>
       <r>     3.5203     1.2534    44.0749 </r>
       <r>     3.7806     2.2625    45.2519 </r>
       <r>     4.0409     1.4186    46.5407 </r>
       <r>     4.3013     0.7024    47.5314 </r>
       <r>     4.5616     0.0000    47.7829 </r>
       <r>     4.8219     0.2634    47.9886 </r>
       <r>     5.0823     0.0000    48.0000 </r>
       <r>     5.3426     0.0000    48.0000 </r>
       <r>     5.6030     0.0000    48.0000 </r>
       <r>     5.8633     0.0000    48.0000 </r>
       <r>     6.1236     0.0000    48.0000 </r>
       <r>     6.3840     0.0000    48.0000 </r>
       <r>     6.6443     0.0000    48.0000 </r>
       <r>     6.9046     0.3788    48.2015 </r>
       <r>     7.1650     1.5649    49.2531 </r>
       <r>     7.4253     1.5308    50.7185 </r>
       <r>     7.6856     3.3500    52.8150 </r>
       <r>     7.9460     2.9600    54.4963 </r>
       <r>     8.2063     1.9034    56.6441 </r>
       <r>     8.4667     1.4048    57.8400 </r>
       <r>     8.7270     1.7611    58.8470 </r>
       <r>     8.9873     0.0132    59.6949 </r>
       <r>     9.2477     0.0036    59.9209 </r>
       <r>     9.5080     0.0439    60.0114 </r>
       <r>     9.7683     0.3148    60.1620 </r>
       <r>    10.0287     1.7552    61.2227 </r>
       <r>    10.2890     1.0536    61.7943 </r>
       <r>    10.5493     0.1756    62.5943 </r>
       <r>    10.8097     0.0000    63.3029 </r>
       <r>    11.0700     0.3480    64.3534 </r>
       <r>    11.3304     1.4888    65.5647 </r>
       <r>    11.5907     0.3512    66.6857 </r>
       <r>    11.8510     1.7557    67.4171 </r>
       <r>    12.1114     0.0000    67.8286 </r>
       <r>    12.3717     0.0000    67.9886 </r>
       <r>    12.6320     0.0000    68.0000 </r>
       <r>    12.8924     0.0000    68.0114 </r>
       <r>    13.1527     0.0000    68.0114 </r>
       <r>    13.4131     0.0040    68.0582 </r>
       <r>    13.6734     0.0000    68.0800 </r>
       <r>    13.9337     0.3512    68.2171 </r>
       <r>    14.1941     0.0000    68.2171 </r>
       <r>    14.4544     0.0001    68.3086 </r>
       <r>    14.7147     0.0000    68.3543 </r>
       <r>    14.9751     0.0878    68.4686 </r>
       <r>    15.2354     0.3512    68.6514 </r>
       <r>    15.4957     0.3512    68.9257 </r>
       <r>    15.7561     0.3512    69.0171 </r>
       <r>    16.0164     0.7540    69.2134 </r>
       <r>    16.2768     0.3512    69.5657 </r>
       <r>    16.5371     0.3512    69.9314 </r>
       <r>    16.7974     0.7024    70.5600 </r>
       <r>    17.0578     0.0003    70.8344 </r>
       <r>    17.3181     0.0000    71.2914 </r>
       <r>    17.5784     0.0000    71.5886 </r>
       <r>    17.8388     0.0000    71.5886 </r>
       <r>    18.0991     0.3510    71.8628 </r>
       <r>    18.3594     0.0000    71.9771 </r>
       <r>    18.6198     0.0000    71.9771 </r>
       <r>    18.8801     0.0000    71.9771 </r>
       <r>    19.1405     0.0000    72.0000 </r>
       <r>    19.4008     0.0000    72.0000 </r>
       <r>    19.6611     0.0000    72.0000 </r>
       <r>    19.9215     0.0000    72.0000 </r>
       <r>    20.1818     0.0000    72.0000 </r>
       <r>    20.4421     0.0000    72.0000 </r>
       <r>    20.7025     0.0000    72.0000 </r>
       <r>    20.9628     0.0000    72.0000 </r>
       <r>    21.2231     0.0000    72.0000 </r>
       <r>    21.4835     0.0000    72.0000 </r>
       <r>    21.7438     0.0000    72.0000 </r>
       <r>    22.0042     0.0000    72.0000 </r>
       <r>    22.2645     0.0000    72.0000 </r>
       <r>    22.5248     0.0000    72.0000 </r>
      </set>
     </set>
    </array>
   </total>
   <partial>
    <array>
     <dimension dim="1">gridpoints</dimension>
     <dimension dim="2">spin</dimension>
     <dimension dim="3">ion</dimension>
     <field>energy</field>
     <field>    s</field>
     <field>   py</field>
     <field>   pz</field>
     <field>   px</field>
     <field>  dxy</field>
     <field>  dyz</field>
     <field>  dz2</field>
     <field>  dxz</field>
     <field>x2-y2</field>
     <set>
      <set comment="ion 1">
       <set comment="spin 1">
        <r>   -55.5761     0.0000     0.0000     0.0000     0.0000     0.0000     0.0000     0.0000     0.0000     0.0000 </r>
        <r>   -55.3158     0.0000     0.0000     0.0000     0.0000     0.0000     0.0000     0.0000     0.0000     0.0000 </r>
        <r>   -55.0555     0.0000     0.0000     0.0000     0.0000     0.0000     0.0000     0.0000     0.0000     0.0000 </r>
        <r>   -54.7951     0.0000     0.0000     0.0000     0.0000     0.0000     0.0000     0.0000     0.0000     0.0000 </r>
        <r>   -54.5348     0.0000     0.0000     0.0000     0.0000     0.0000     0.0000     0.0000     0.0000     0.0000 </r>
        <r>   -54.2745     0.0000     0.0000     0.0000     0.0000     0.0000     0.0000     0.0000     0.0000     0.0000 </r>
        <r>   -54.0141     0.0000     0.0000     0.0000     0.0000     0.0000     0.0000     0.0000     0.0000     0.0000 </r>
        <r>   -53.7538     0.0000     0.0000     0.0000     0.0000     0.0000     0.0000     0.0000     0.0000     0.0000 </r>
        <r>   -53.4934     0.0000     0.0000     0.0000     0.0000     0.0000     0.0000     0.0000     0.0000     0.0000 </r>
        <r>   -53.2331     0.0000     0.0000     0.0000     0.0000     0.0000     0.0000     0.0000     0.0000     0.0000 </r>
        <r>   -52.9728     0.0000     0.0000     0.0000     0.0000     0.0000     0.0000     0.0000     0.0000     0.0000 </r>
        <r>   -52.7124     0.0000     0.0000     0.0000     0.0000     0.0000     0.0000     0.0000     0.0000     0.0000 </r>
        <r>   -52.4521     0.0000     0.0000     0.0000     0.0000     0.0000     0.0000     0.0000     0.0000     0.0000 </r>
        <r>   -52.1918     0.0000     0.0000     0.0000     0.0000     0.0000     0.0000     0.0000     0.0000     0.0000 </r>
        <r>   -51.9314     0.0011     0.0005     0.0009     0.0005     0.0000     0.0000     0.0000     0.0000     0.0000 </r>
        <r>   -51.6711     0.0000     0.0000     0.0000     0.0000     0.0000     0.0000     0.0000     0.0000     0.0000 </r>
        <r>   -51.4107     0.0000     0.0000     0.0000     0.0000     0.0000     0.0000     0.0000     0.0000     0.0000 </r>
        <r>   -51.1504     0.0000     0.0000     0.0000     0.0000     0.0000     0.0000     0.0000     0.0000     0.0000 </r>
        <r>   -50.8901     0.0000     0.0000     0.0000     0.0000     0.0000     0.0000     0.0000     0.0000     0.0000 </r>
        <r>   -50.6297     0.0000     0.0000     0.0000     0.0000     0.0000     0.0000     0.0000     0.0000     0.0000 </r>
        <r>   -50.3694     0.0000     0.0000     0.0000     0.0000     0.0000     0.0000     0.0000     0.0000     0.0000 </r>
        <r>   -50.1091     0.0000     0.0000     0.0000     0.0000     0.0000     0.0000     0.0000     0.0000     0.0000 </r>
        <r>   -49.8487     0.0000     0.0000     0.0000     0.0000     0.0000     0.0000     0.0000     0.0000     0.0000 </r>
        <r>   -49.5884     0.0000     0.0000     0.0000     0.0000     0.0000     0.0000     0.0000     0.0000     0.0000 </r>
        <r>   -49.3281     0.0000     0.0000     0.0000     0.0000     0.0000     0.0000     0.0000     0.0000     0.0000 </r>
        <r>   -49.0677     0.0000     0.0000     0.0000     0.0000     0.0000     0.0000     0.0000     0.0000     0.0000 </r>
        <r>   -48.8074     0.0000     0.0000     0.0000     0.0000     0.0000     0.0000     0.0000     0.0000     0.0000 </r>
        <r>   -48.5470     0.0000     0.0000     0.0000     0.0000     0.0000     0.0000     0.0000     0.0000     0.0000 </r>
        <r>   -48.2867     0.0000     0.0000     0.0000     0.0000     0.0000     0.0000     0.0000     0.0000     0.0000 </r>
        <r>   -48.0264     0.0000     0.0000     0.0000     0.0000     0.0000     0.0000     0.0000     0.0000     0.0000 </r>
[...]
        <r>  0.0065  0.0010  0.0001  0.0010  0.0000  0.0000  0.0000  0.0000  0.0000 </r>
        <r>  0.0000  0.0000  0.0001  0.0000  0.0000  0.0000  0.0000  0.0000  0.0000 </r>
        <r>  0.0000  0.0006  0.0046  0.0006  0.0000  0.0000  0.0000  0.0000  0.0000 </r>
        <r>  0.0000  0.0000  0.9535  0.0000  0.0000  0.0000  0.0000  0.0000  0.0000 </r>
       </set>
       <set comment="band 5">
        <r>  0.0000  0.0000  0.0000  0.0000  0.0000  0.0000  0.0000  0.0000  0.0000 </r>
        <r>  0.0026  0.0004  0.0006  0.0004  0.0000  0.0000  0.0000  0.0000  0.0000 </r>
        <r>  0.0026  0.0004  0.0006  0.0004  0.0000  0.0000  0.0000  0.0000  0.0000 </r>
        <r>  0.0000  0.0000  0.0000  0.0000  0.0000  0.0000  0.0000  0.0000  0.0000 </r>
        <r>  0.0000  0.3444  0.0000  0.3444  0.0000  0.0000  0.0000  0.0000  0.0000 </r>
        <r>  0.0000  0.1434  0.0000  0.1434  0.0000  0.0000  0.0000  0.0000  0.0000 </r>
       </set>
       <set comment="band 6">
        <r>  0.0021  0.0005  0.0006  0.0005  0.0000  0.0000  0.0000  0.0000  0.0000 </r>
        <r>  0.0000  0.0000  0.0000  0.0000  0.0000  0.0000  0.0000  0.0000  0.0000 </r>
        <r>  0.0000  0.0000  0.0000  0.0000  0.0000  0.0000  0.0000  0.0000  0.0000 </r>
        <r>  0.0021  0.0005  0.0006  0.0005  0.0000  0.0000  0.0000  0.0000  0.0000 </r>
        <r>  0.0000  0.1462  0.0084  0.1462  0.0000  0.0000  0.0000  0.0000  0.0000 </r>
        <r>  0.0000  0.3376  0.0005  0.3376  0.0000  0.0000  0.0000  0.0000  0.0000 </r>
       </set>
       <set comment="band 7">
        <r>  0.0002  0.0003  0.0013  0.0003  0.0000  0.0000  0.0000  0.0000  0.0000 </r>
        <r>  0.0000  0.0000  0.0000  0.0000  0.0000  0.0000  0.0000  0.0000  0.0000 </r>
        <r>  0.0000  0.0000  0.0000  0.0000  0.0000  0.0000  0.0000  0.0000  0.0000 </r>
        <r>  0.0002  0.0003  0.0013  0.0003  0.0000  0.0000  0.0000  0.0000  0.0000 </r>
        <r>  0.0000  0.3433  0.0030  0.3433  0.0000  0.0000  0.0000  0.0000  0.0000 </r>
        <r>  0.0000  0.1452  0.0009  0.1452  0.0000  0.0000  0.0000  0.0000  0.0000 </r>
       </set>
       <set comment="band 8">
        <r>  0.0000  0.0000  0.0000  0.0000  0.0000  0.0000  0.0000  0.0000  0.0000 </r>
        <r>  0.0002  0.0003  0.0014  0.0003  0.0000  0.0000  0.0000  0.0000  0.0000 </r>
        <r>  0.0002  0.0003  0.0014  0.0003  0.0000  0.0000  0.0000  0.0000  0.0000 </r>
        <r>  0.0000  0.0000  0.0000  0.0000  0.0000  0.0000  0.0000  0.0000  0.0000 </r>
        <r>  0.0000  0.1437  0.0000  0.1437  0.0000  0.0000  0.0000  0.0000  0.0000 </r>
        <r>  0.0000  0.3467  0.0000  0.3467  0.0000  0.0000  0.0000  0.0000  0.0000 </r>
       </set>
       <set comment="band 9">
        <r>  0.3883  0.0002  0.0000  0.0002  0.0000  0.0000  0.0000  0.0000  0.0000 </r>
        <r>  0.0048  0.0000  0.0000  0.0000  0.0000  0.0000  0.0000  0.0000  0.0000 </r>
        <r>  0.0048  0.0000  0.0000  0.0000  0.0000  0.0000  0.0000  0.0000  0.0000 </r>
        <r>  0.3883  0.0002  0.0000  0.0002  0.0000  0.0000  0.0000  0.0000  0.0000 </r>
        <r>  0.0000  0.0008  0.0023  0.0008  0.0003  0.0269  0.0001  0.0269  0.0000 </r>
        <r>  0.0045  0.0036  0.0006  0.0036  0.0067  0.0000  0.0022  0.0000  0.0000 </r>
       </set>
       <set comment="band 10">
        <r>  0.0000  0.0000  0.0000  0.0000  0.0000  0.0000  0.0000  0.0000  0.0000 </r>
        <r>  0.3943  0.0003  0.0000  0.0003  0.0000  0.0000  0.0000  0.0000  0.0000 </r>
        <r>  0.3943  0.0003  0.0000  0.0003  0.0000  0.0000  0.0000  0.0000  0.0000 </r>
        <r>  0.0000  0.0000  0.0000  0.0000  0.0000  0.0000  0.0000  0.0000  0.0000 </r>
        <r>  0.0000  0.0085  0.0000  0.0085  0.0000  0.0000  0.0000  0.0000  0.0000 </r>
        <r>  0.0000  0.0009  0.0000  0.0009  0.0000  0.0298  0.0000  0.0298  0.0000 </r>
       </set>
       <set comment="band 11">
        <r>  0.0192  0.0000  0.0000  0.0000  0.0000  0.0000  0.0000  0.0000  0.0000 </r>
        <r>  0.3731  0.0000  0.0001  0.0000  0.0000  0.0000  0.0000  0.0000  0.0000 </r>
        <r>  0.3731  0.0000  0.0001  0.0000  0.0000  0.0000  0.0000  0.0000  0.0000 </r>
        <r>  0.0192  0.0000  0.0000  0.0000  0.0000  0.0000  0.0000  0.0000  0.0000 </r>
        <r>  0.0078  0.0000  0.0023  0.0000  0.0120  0.0001  0.0035  0.0001  0.0000 </r>
        <r>  0.0006  0.0000  0.0437  0.0000  0.0024  0.0000  0.0013  0.0000  0.0000 </r>
       </set>
       <set comment="band 12">
        <r>  0.3794  0.0001  0.0001  0.0001  0.0000  0.0000  0.0000  0.0000  0.0000 </r>
        <r>  0.0144  0.0000  0.0000  0.0000  0.0000  0.0000  0.0000  0.0000  0.0000 </r>
        <r>  0.0144  0.0000  0.0000  0.0000  0.0000  0.0000  0.0000  0.0000  0.0000 </r>
        <r>  0.3794  0.0001  0.0001  0.0001  0.0000  0.0000  0.0000  0.0000  0.0000 </r>
        <r>  0.0007  0.0001  0.0425  0.0001  0.0021  0.0021  0.0012  0.0021  0.0000 </r>
        <r>  0.0032  0.0050  0.0019  0.0050  0.0051  0.0000  0.0013  0.0000  0.0000 </r>
       </set>
       <set comment="band 13">
        <r>  0.0003  0.0025  0.1435  0.0025  0.0000  0.0000  0.0000  0.0000  0.0000 </r>
        <r>  0.0000  0.0412  0.0001  0.0412  0.0000  0.0000  0.0000  0.0000  0.0000 </r>
        <r>  0.0000  0.0412  0.0001  0.0412  0.0000  0.0000  0.0000  0.0000  0.0000 </r>
        <r>  0.0003  0.0025  0.1435  0.0025  0.0000  0.0000  0.0000  0.0000  0.0000 </r>
        <r>  0.0394  0.0087  0.0004  0.0087  0.0177  0.0042  0.0023  0.0042  0.0000 </r>
        <r>  0.0000  0.0004  0.0049  0.0004  0.0017  0.0461  0.0020  0.0461  0.0000 </r>
       </set>
       <set comment="band 14">
        <r>  0.0000  0.0512  0.0000  0.0512  0.0000  0.0000  0.0000  0.0000  0.0000 </r>
        <r>  0.0000  0.0038  0.1171  0.0038  0.0000  0.0000  0.0000  0.0000  0.0000 </r>
        <r>  0.0000  0.0038  0.1171  0.0038  0.0000  0.0000  0.0000  0.0000  0.0000 </r>
        <r>  0.0000  0.0512  0.0000  0.0512  0.0000  0.0000  0.0000  0.0000  0.0000 </r>
        <r>  0.0000  0.0013  0.0000  0.0013  0.0000  0.0581  0.0000  0.0581  0.0001 </r>
        <r>  0.0000  0.0199  0.0000  0.0199  0.0000  0.0085  0.0000  0.0085  0.0031 </r>
       </set>
       <set comment="band 15">
        <r>  0.0003  0.0640  0.0095  0.0640  0.0000  0.0000  0.0000  0.0000  0.0000 </r>
        <r>  0.0006  0.0170  0.0989  0.0170  0.0000  0.0000  0.0000  0.0000  0.0000 </r>
        <r>  0.0006  0.0170  0.0989  0.0170  0.0000  0.0000  0.0000  0.0000  0.0000 </r>
        <r>  0.0003  0.0640  0.0095  0.0640  0.0000  0.0000  0.0000  0.0000  0.0000 </r>
        <r>  0.0040  0.0005  0.0363  0.0005  0.0055  0.0095  0.0174  0.0095  0.0000 </r>
        <r>  0.0874  0.0002  0.0047  0.0002  0.0000  0.0002  0.0106  0.0002  0.0000 </r>
       </set>
       <set comment="band 16">
        <r>  0.0005  0.0133  0.0564  0.0133  0.0000  0.0000  0.0000  0.0000  0.0000 </r>
        <r>  0.0000  0.0835  0.0186  0.0835  0.0000  0.0000  0.0000  0.0000  0.0000 </r>
        <r>  0.0000  0.0835  0.0186  0.0835  0.0000  0.0000  0.0000  0.0000  0.0000 </r>
        <r>  0.0005  0.0133  0.0564  0.0133  0.0000  0.0000  0.0000  0.0000  0.0000 </r>
        <r>  0.0439  0.0067  0.0065  0.0067  0.0209  0.0004  0.0125  0.0004  0.0000 </r>
        <r>  0.0064  0.0009  0.0498  0.0009  0.0000  0.0069  0.0169  0.0069  0.0000 </r>
       </set>
       <set comment="band 17">
        <r>  0.0014  0.0619  0.0191  0.0619  0.0000  0.0000  0.0000  0.0000  0.0000 </r>
        <r>  0.0000  0.0045  0.1171  0.0045  0.0000  0.0000  0.0000  0.0000  0.0000 </r>
        <r>  0.0000  0.0045  0.1171  0.0045  0.0000  0.0000  0.0000  0.0000  0.0000 </r>
        <r>  0.0014  0.0619  0.0191  0.0619  0.0000  0.0000  0.0000  0.0000  0.0000 </r>
        <r>  0.0002  0.0001  0.0072  0.0001  0.0198  0.0236  0.0000  0.0236  0.0000 </r>
        <r>  0.0063  0.0008  0.0000  0.0008  0.2036  0.0004  0.0217  0.0004  0.0000 </r>
       </set>
       <set comment="band 18">
        <r>  0.0000  0.0104  0.1514  0.0104  0.0000  0.0000  0.0000  0.0000  0.0000 </r>
        <r>  0.0011  0.0424  0.0214  0.0424  0.0000  0.0000  0.0000  0.0000  0.0000 </r>
        <r>  0.0011  0.0424  0.0214  0.0424  0.0000  0.0000  0.0000  0.0000  0.0000 </r>
        <r>  0.0000  0.0104  0.1514  0.0104  0.0000  0.0000  0.0000  0.0000  0.0000 </r>
        <r>  0.0124  0.0059  0.0004  0.0059  0.1626  0.0019  0.0173  0.0019  0.0000 </r>
        <r>  0.0004  0.0011  0.0105  0.0011  0.0260  0.0030  0.0001  0.0030  0.0000 </r>
       </set>
       <set comment="band 19">
        <r>  0.0000  0.0051  0.0000  0.0051  0.0000  0.0000  0.0000  0.0000  0.0000 </r>
        <r>  0.0039  0.1462  0.0003  0.1462  0.0000  0.0000  0.0000  0.0000  0.0000 </r>
        <r>  0.0039  0.1462  0.0003  0.1462  0.0000  0.0000  0.0000  0.0000  0.0000 </r>
        <r>  0.0000  0.0051  0.0000  0.0051  0.0000  0.0000  0.0000  0.0000  0.0000 </r>
        <r>  0.0000  0.0229  0.0000  0.0229  0.0000  0.0045  0.0000  0.0045  0.0000 </r>
        <r>  0.0000  0.0010  0.0000  0.0010  0.0000  0.0912  0.0000  0.0912  0.0004 </r>
       </set>
       <set comment="band 20">
        <r>  0.0023  0.1388  0.0128  0.1388  0.0000  0.0000  0.0000  0.0000  0.0000 </r>
        <r>  0.0000  0.0051  0.0113  0.0051  0.0000  0.0000  0.0000  0.0000  0.0000 </r>
        <r>  0.0000  0.0051  0.0113  0.0051  0.0000  0.0000  0.0000  0.0000  0.0000 </r>
        <r>  0.0023  0.1388  0.0128  0.1388  0.0000  0.0000  0.0000  0.0000  0.0000 </r>
        <r>  0.0000  0.0023  0.0214  0.0023  0.0073  0.0527  0.0030  0.0527  0.0000 </r>
        <r>  0.0041  0.0209  0.0000  0.0209  0.0051  0.0034  0.0000  0.0034  0.0000 </r>
       </set>
       <set comment="band 21">
        <r>  0.0000  0.0038  0.0000  0.0038  0.0000  0.0000  0.0000  0.0000  0.0000 </r>
        <r>  0.0003  0.1467  0.0110  0.1467  0.0000  0.0000  0.0000  0.0000  0.0000 </r>
        <r>  0.0003  0.1467  0.0110  0.1467  0.0000  0.0000  0.0000  0.0000  0.0000 </r>
        <r>  0.0000  0.0038  0.0000  0.0038  0.0000  0.0000  0.0000  0.0000  0.0000 </r>
        <r>  0.0000  0.0000  0.0000  0.0000  0.0000  0.0000  0.0000  0.0000  0.0973 </r>
        <r>  0.0000  0.0009  0.0000  0.0009  0.0000  0.0002  0.0000  0.0002  0.0129 </r>
       </set>
       <set comment="band 22">
        <r>  0.0000  0.1494  0.0000  0.1494  0.0000  0.0000  0.0000  0.0000  0.0000 </r>
        <r>  0.0000  0.0003  0.0228  0.0003  0.0000  0.0000  0.0000  0.0000  0.0000 </r>
        <r>  0.0000  0.0003  0.0228  0.0003  0.0000  0.0000  0.0000  0.0000  0.0000 </r>
        <r>  0.0000  0.1494  0.0000  0.1494  0.0000  0.0000  0.0000  0.0000  0.0000 </r>
        <r>  0.0000  0.0002  0.0000  0.0002  0.0000  0.0035  0.0000  0.0035  0.0113 </r>
        <r>  0.0000  0.0043  0.0000  0.0043  0.0000  0.0002  0.0000  0.0002  0.0812 </r>
       </set>
       <set comment="band 23">
        <r>  0.0005  0.0021  0.1954  0.0021  0.0000  0.0000  0.0000  0.0000  0.0000 </r>
        <r>  0.0001  0.0814  0.0000  0.0814  0.0000  0.0000  0.0000  0.0000  0.0000 </r>
        <r>  0.0001  0.0814  0.0000  0.0814  0.0000  0.0000  0.0000  0.0000  0.0000 </r>
        <r>  0.0005  0.0021  0.1954  0.0021  0.0000  0.0000  0.0000  0.0000  0.0000 </r>
        <r>  0.0045  0.0155  0.0001  0.0155  0.0027  0.0019  0.0000  0.0019  0.0000 </r>
        <r>  0.0002  0.0007  0.0000  0.0007  0.0014  0.0155  0.0001  0.0155  0.0000 </r>
       </set>
       <set comment="band 24">
        <r>  0.0000  0.0917  0.0000  0.0917  0.0000  0.0000  0.0000  0.0000  0.0000 </r>
        <r>  0.0002  0.0131  0.1652  0.0131  0.0000  0.0000  0.0000  0.0000  0.0000 </r>
        <r>  0.0002  0.0131  0.1652  0.0131  0.0000  0.0000  0.0000  0.0000  0.0000 </r>
        <r>  0.0000  0.0917  0.0000  0.0917  0.0000  0.0000  0.0000  0.0000  0.0000 </r>
        <r>  0.0000  0.0010  0.0000  0.0010  0.0000  0.0053  0.0000  0.0053  0.0011 </r>
        <r>  0.0000  0.0126  0.0000  0.0126  0.0000  0.0009  0.0000  0.0009  0.0000 </r>
       </set>
       <set comment="band 25">
        <r>  0.0000  0.0105  0.0000  0.0105  0.0000  0.0000  0.0000  0.0000  0.0000 </r>
        <r>  0.0000  0.0011  0.0076  0.0011  0.0000  0.0000  0.0000  0.0000  0.0000 </r>
        <r>  0.0000  0.0011  0.0076  0.0011  0.0000  0.0000  0.0000  0.0000  0.0000 </r>
        <r>  0.0000  0.0105  0.0000  0.0105  0.0000  0.0000  0.0000  0.0000  0.0000 </r>
        <r>  0.0000  0.0000  0.0000  0.0000  0.0000  0.1069  0.0000  0.1069  0.0217 </r>
        <r>  0.0000  0.0024  0.0000  0.0024  0.0000  0.0008  0.0000  0.0008  0.5647 </r>
       </set>
       <set comment="band 26">
        <r>  0.0000  0.0017  0.0000  0.0017  0.0000  0.0000  0.0000  0.0000  0.0000 </r>
        <r>  0.0000  0.0258  0.0002  0.0258  0.0000  0.0000  0.0000  0.0000  0.0000 </r>
        <r>  0.0000  0.0258  0.0002  0.0258  0.0000  0.0000  0.0000  0.0000  0.0000 </r>
        <r>  0.0000  0.0017  0.0000  0.0017  0.0000  0.0000  0.0000  0.0000  0.0000 </r>
        <r>  0.0000  0.0000  0.0000  0.0000  0.0000  0.0014  0.0000  0.0014  0.7525 </r>
        <r>  0.0000  0.0000  0.0000  0.0000  0.0000  0.0001  0.0000  0.0001  0.0166 </r>
       </set>
       <set comment="band 27">
        <r>  0.0001  0.0004  0.0029  0.0004  0.0000  0.0000  0.0000  0.0000  0.0000 </r>
        <r>  0.0001  0.0228  0.0030  0.0228  0.0000  0.0000  0.0000  0.0000  0.0000 </r>
        <r>  0.0001  0.0228  0.0030  0.0228  0.0000  0.0000  0.0000  0.0000  0.0000 </r>
        <r>  0.0001  0.0004  0.0029  0.0004  0.0000  0.0000  0.0000  0.0000  0.0000 </r>
        <r>  0.0000  0.0029  0.0000  0.0029  0.0582  0.0001  0.0386  0.0001  0.0000 </r>
        <r>  0.0006  0.0000  0.0000  0.0000  0.0206  0.2503  0.1723  0.2503  0.0000 </r>
       </set>
       <set comment="band 28">
        <r>  0.0000  0.0017  0.0029  0.0017  0.0000  0.0000  0.0000  0.0000  0.0000 </r>
        <r>  0.0005  0.0011  0.0109  0.0011  0.0000  0.0000  0.0000  0.0000  0.0000 </r>
        <r>  0.0005  0.0011  0.0109  0.0011  0.0000  0.0000  0.0000  0.0000  0.0000 </r>
        <r>  0.0000  0.0017  0.0029  0.0017  0.0000  0.0000  0.0000  0.0000  0.0000 </r>
        <r>  0.0000  0.0002  0.0008  0.0002  0.0243  0.0000  0.3453  0.0000  0.0000 </r>
        <r>  0.0037  0.0001  0.0000  0.0001  0.1006  0.0176  0.3950  0.0176  0.0000 </r>
       </set>
       <set comment="band 29">
        <r>  0.0006  0.0001  0.0145  0.0001  0.0000  0.0000  0.0000  0.0000  0.0000 </r>
        <r>  0.0000  0.0109  0.0018  0.0109  0.0000  0.0000  0.0000  0.0000  0.0000 </r>
        <r>  0.0000  0.0109  0.0018  0.0109  0.0000  0.0000  0.0000  0.0000  0.0000 </r>
        <r>  0.0006  0.0001  0.0145  0.0001  0.0000  0.0000  0.0000  0.0000  0.0000 </r>
        <r>  0.0062  0.0010  0.0001  0.0010  0.0638  0.0023  0.3867  0.0023  0.0000 </r>
        <r>  0.0000  0.0001  0.0008  0.0001  0.0067  0.0898  0.2039  0.0898  0.0000 </r>
       </set>
       <set comment="band 30">
        <r>  0.0000  0.0403  0.0000  0.0403  0.0000  0.0000  0.0000  0.0000  0.0000 </r>
        <r>  0.0000  0.0005  0.0044  0.0005  0.0000  0.0000  0.0000  0.0000  0.0000 </r>
        <r>  0.0000  0.0005  0.0044  0.0005  0.0000  0.0000  0.0000  0.0000  0.0000 </r>
        <r>  0.0000  0.0403  0.0000  0.0403  0.0000  0.0000  0.0000  0.0000  0.0000 </r>
        <r>  0.0000  0.0000  0.0000  0.0000  0.0000  0.2589  0.0000  0.2589  0.0002 </r>
        <r>  0.0000  0.0032  0.0000  0.0032  0.0000  0.0008  0.0000  0.0008  0.2062 </r>
       </set>
       <set comment="band 31">
        <r>  0.0248  0.0146  0.0032  0.0146  0.0000  0.0000  0.0000  0.0000  0.0000 </r>
        <r>  0.0000  0.0002  0.0181  0.0002  0.0000  0.0000  0.0000  0.0000  0.0000 </r>
        <r>  0.0000  0.0002  0.0181  0.0002  0.0000  0.0000  0.0000  0.0000  0.0000 </r>
        <r>  0.0248  0.0146  0.0032  0.0146  0.0000  0.0000  0.0000  0.0000  0.0000 </r>
        <r>  0.0000  0.0002  0.0041  0.0002  0.0016  0.2150  0.0068  0.2150  0.0000 </r>
        <r>  0.0040  0.0019  0.0000  0.0019  0.3003  0.0013  0.0470  0.0013  0.0000 </r>
       </set>
       <set comment="band 32">
        <r>  0.0002  0.0004  0.0426  0.0004  0.0000  0.0000  0.0000  0.0000  0.0000 </r>
        <r>  0.0101  0.0254  0.0012  0.0254  0.0000  0.0000  0.0000  0.0000  0.0000 </r>
        <r>  0.0101  0.0254  0.0012  0.0254  0.0000  0.0000  0.0000  0.0000  0.0000 </r>
        <r>  0.0002  0.0004  0.0426  0.0004  0.0000  0.0000  0.0000  0.0000  0.0000 </r>
        <r>  0.0029  0.0000  0.0000  0.0000  0.5750  0.0003  0.1116  0.0003  0.0000 </r>
        <r>  0.0005  0.0000  0.0129  0.0000  0.0069  0.0052  0.0087  0.0052  0.0000 </r>
       </set>
       <set comment="band 33">
        <r>  0.0000  0.0004  0.0000  0.0004  0.0000  0.0000  0.0000  0.0000  0.0000 </r>
        <r>  0.0231  0.0357  0.0044  0.0357  0.0000  0.0000  0.0000  0.0000  0.0000 </r>
        <r>  0.0231  0.0357  0.0044  0.0357  0.0000  0.0000  0.0000  0.0000  0.0000 </r>
        <r>  0.0000  0.0004  0.0000  0.0004  0.0000  0.0000  0.0000  0.0000  0.0000 </r>
        <r>  0.0000  0.0059  0.0000  0.0059  0.0000  0.0025  0.0000  0.0025  0.0000 </r>
        <r>  0.0000  0.0003  0.0000  0.0003  0.0000  0.3681  0.0000  0.3681  0.0000 </r>
       </set>
       <set comment="band 34">
        <r>  0.0075  0.0470  0.0017  0.0470  0.0000  0.0000  0.0000  0.0000  0.0000 </r>
        <r>  0.0002  0.0008  0.0226  0.0008  0.0000  0.0000  0.0000  0.0000  0.0000 </r>
        <r>  0.0002  0.0008  0.0226  0.0008  0.0000  0.0000  0.0000  0.0000  0.0000 </r>
        <r>  0.0075  0.0470  0.0017  0.0470  0.0000  0.0000  0.0000  0.0000  0.0000 </r>
        <r>  0.0004  0.0000  0.0029  0.0000  0.0042  0.1590  0.0010  0.1590  0.0000 </r>
        <r>  0.0001  0.0021  0.0000  0.0021  0.2954  0.0003  0.0647  0.0003  0.0000 </r>
       </set>
       <set comment="band 35">
        <r>  0.0280  0.0045  0.0024  0.0045  0.0000  0.0000  0.0000  0.0000  0.0000 </r>
        <r>  0.0011  0.0048  0.0071  0.0048  0.0000  0.0000  0.0000  0.0000  0.0000 </r>
        <r>  0.0011  0.0048  0.0071  0.0048  0.0000  0.0000  0.0000  0.0000  0.0000 </r>
        <r>  0.0280  0.0045  0.0024  0.0045  0.0000  0.0000  0.0000  0.0000  0.0000 </r>
        <r>  0.0022  0.0003  0.0056  0.0003  0.0002  0.0046  0.0000  0.0046  0.0000 </r>
        <r>  0.0004  0.0193  0.0014  0.0193  0.0013  0.0004  0.0022  0.0004  0.0000 </r>
       </set>
       <set comment="band 36">
        <r>  0.0000  0.0048  0.0000  0.0048  0.0000  0.0000  0.0000  0.0000  0.0000 </r>
        <r>  0.0242  0.0094  0.0015  0.0094  0.0000  0.0000  0.0000  0.0000  0.0000 </r>
        <r>  0.0242  0.0094  0.0015  0.0094  0.0000  0.0000  0.0000  0.0000  0.0000 </r>
        <r>  0.0000  0.0048  0.0000  0.0048  0.0000  0.0000  0.0000  0.0000  0.0000 </r>
        <r>  0.0000  0.0189  0.0000  0.0189  0.0000  0.0003  0.0000  0.0003  0.0054 </r>
        <r>  0.0000  0.0005  0.0000  0.0005  0.0000  0.0048  0.0000  0.0048  0.0000 </r>
       </set>
      </set>
     </set>
    </set>
   </array>
  </projected>
 </calculation>
 <structure name="finalpos" >
  <crystal>
   <varray name="basis" >
    <v>       4.59096672       0.00000000       0.00000000 </v>
    <v>       0.00000000       4.59096672       0.00000000 </v>
    <v>       0.00000000       0.00000000       2.95206776 </v>
   </varray>
   <i name="volume">     62.22065961 </i>
   <varray name="rec_basis" >
    <v>       0.21781905      -0.00000000       0.00000000 </v>
    <v>       0.00000000       0.21781905       0.00000000 </v>
    <v>      -0.00000000      -0.00000000       0.33874561 </v>
   </varray>
  </crystal>
  <varray name="positions" >
   <v>       0.69606687       0.69606687       0.50000000 </v>
   <v>       0.19606687       0.80393313       0.00000000 </v>
   <v>       0.80393313       0.19606687       0.00000000 </v>
   <v>       0.30393313       0.30393313       0.50000000 </v>
   <v>       0.50000000       0.50000000       0.00000000 </v>
   <v>       0.00000000       0.00000000       0.50000000 </v>
  </varray>
 </structure>
</modeling>
