<?xml version="1.0" encoding="ISO-8859-1"?>
<modeling>
 <generator>
  <i name="program" type="string">vasp </i>
  <i name="version" type="string">5.4.4.18Apr17-6-g9f103f2a35  </i>
  <i name="subversion" type="string">(build Sep 23 2022 14:27:27) complex            parallel </i>
  <i name="platform" type="string">LinuxIFC </i>
  <i name="date" type="string">2024 10 08 </i>
  <i name="time" type="string">09:51:36 </i>
 </generator>
 <incar>
  <i type="string" name="PREC">accurate</i>
  <i type="string" name="ALGO"> All</i>
  <i type="int" name="IBRION">    -1</i>
  <i name="EDIFF">      0.00000001</i>
  <i type="int" name="NSW">     0</i>
  <i type="int" name="ISIF">     3</i>
  <i name="ENCUT">    400.00000000</i>
  <i type="logical" name="LREAL"> F  </i>
  <i name="TIME">      0.50000000</i>
  <i type="int" name="ISMEAR">     0</i>
  <i name="SIGMA">      0.01000000</i>
  <i type="logical" name="LWAVE"> F  </i>
  <i type="logical" name="LCHARG"> T  </i>
  <i type="int" name="LORBIT">    11</i>
  <v type="int" name="KPOINT_BSE">    -1     0     0     0</v>
  <i type="logical" name="LHFCALC"> T  </i>
  <i name="HFSCREEN">      0.20000000</i>
  <i name="AEXX">      0.20000000</i>
 </incar>
 <structure name="primitive_cell" >
  <crystal>
   <varray name="basis" >
    <v>       4.59096672       0.00000000       0.00000000 </v>
    <v>       0.00000000       4.59096672       0.00000000 </v>
    <v>       0.00000000       0.00000000       2.95206776 </v>
   </varray>
   <i name="volume">     62.22065961 </i>
   <varray name="rec_basis" >
    <v>       0.21781905      -0.00000000       0.00000000 </v>
    <v>       0.00000000       0.21781905       0.00000000 </v>
    <v>      -0.00000000      -0.00000000       0.33874561 </v>
   </varray>
  </crystal>
  <varray name="positions" >
   <v>      -0.30393313      -0.30393313      -0.50000000 </v>
   <v>      -0.50000000      -0.50000000       0.00000000 </v>
   <v>       0.00000000       0.00000000      -0.50000000 </v>
   <v>       0.30393313       0.30393313      -0.50000000 </v>
   <v>       0.19606687      -0.19606687       0.00000000 </v>
   <v>      -0.19606687       0.19606687       0.00000000 </v>
  </varray>
 </structure>
 <varray name="primitive_index" >
  <v type="int" >        1 </v>
  <v type="int" >        5 </v>
  <v type="int" >        6 </v>
  <v type="int" >        4 </v>
  <v type="int" >        2 </v>
  <v type="int" >        3 </v>
 </varray>
 <kpoints>
  <generation param="Gamma">
   <v type="int" name="divisions">       5        5        7 </v>
   <v name="usershift">      0.00000000       0.00000000       0.00000000 </v>
   <v name="genvec1">      0.20000000       0.00000000       0.00000000 </v>
   <v name="genvec2">      0.00000000       0.20000000       0.00000000 </v>
   <v name="genvec3">      0.00000000      -0.00000000       0.14285714 </v>
   <v name="shift">      0.00000000       0.00000000       0.00000000 </v>
  </generation>
  <varray name="kpointlist" >
   <v>       0.00000000       0.00000000       0.00000000 </v>
   <v>       0.20000000       0.00000000       0.00000000 </v>
   <v>       0.40000000       0.00000000       0.00000000 </v>
   <v>       0.20000000       0.20000000       0.00000000 </v>
   <v>       0.40000000       0.20000000       0.00000000 </v>
   <v>       0.40000000       0.40000000       0.00000000 </v>
   <v>       0.00000000       0.00000000       0.14285714 </v>
   <v>       0.20000000       0.00000000       0.14285714 </v>
   <v>       0.40000000       0.00000000       0.14285714 </v>
   <v>       0.20000000       0.20000000       0.14285714 </v>
   <v>       0.40000000       0.20000000       0.14285714 </v>
   <v>       0.40000000       0.40000000       0.14285714 </v>
   <v>       0.00000000       0.00000000       0.28571429 </v>
   <v>       0.20000000       0.00000000       0.28571429 </v>
   <v>       0.40000000       0.00000000       0.28571429 </v>
   <v>       0.20000000       0.20000000       0.28571429 </v>
   <v>       0.40000000       0.20000000       0.28571429 </v>
   <v>       0.40000000       0.40000000       0.28571429 </v>
   <v>       0.00000000       0.00000000       0.42857143 </v>
   <v>       0.20000000       0.00000000       0.42857143 </v>
   <v>       0.40000000       0.00000000       0.42857143 </v>
   <v>       0.20000000       0.20000000       0.42857143 </v>
   <v>       0.40000000       0.20000000       0.42857143 </v>
   <v>       0.40000000       0.40000000       0.42857143 </v>
  </varray>
  <varray name="weights" >
   <v>       0.00571429 </v>
   <v>       0.02285714 </v>
   <v>       0.02285714 </v>
   <v>       0.02285714 </v>
   <v>       0.04571429 </v>
   <v>       0.02285714 </v>
   <v>       0.01142857 </v>
   <v>       0.04571429 </v>
   <v>       0.04571429 </v>
   <v>       0.04571429 </v>
   <v>       0.09142857 </v>
   <v>       0.04571429 </v>
   <v>       0.01142857 </v>
   <v>       0.04571429 </v>
   <v>       0.04571429 </v>
   <v>       0.04571429 </v>
   <v>       0.09142857 </v>
   <v>       0.04571429 </v>
   <v>       0.01142857 </v>
   <v>       0.04571429 </v>
   <v>       0.04571429 </v>
   <v>       0.04571429 </v>
   <v>       0.09142857 </v>
   <v>       0.04571429 </v>
  </varray>
 </kpoints>
 <parameters>
  <separator name="general" >
   <i type="string" name="SYSTEM">unknown system</i>
   <i type="logical" name="LCOMPAT"> F  </i>
  </separator>
  <separator name="electronic" >
   <i type="string" name="PREC">accura</i>
   <i name="ENMAX">    400.00000000</i>
   <i name="ENAUG">    605.39200000</i>
   <i name="EDIFF">      0.00000001</i>
   <i type="int" name="IALGO">    58</i>
   <i type="int" name="IWAVPR">    10</i>
   <i type="int" name="NBANDS">    52</i>
   <i name="NELECT">     48.00000000</i>
   <i type="int" name="TURBO">     0</i>
   <i type="int" name="IRESTART">     0</i>
   <i type="int" name="NREBOOT">     0</i>
   <i type="int" name="NMIN">     0</i>
   <i name="EREF">      0.00000000</i>
   <separator name="electronic smearing" >
    <i type="int" name="ISMEAR">     0</i>
    <i name="SIGMA">      0.01000000</i>
    <i name="KSPACING">      0.50000000</i>
    <i type="logical" name="KGAMMA"> T  </i>
   </separator>
   <separator name="electronic projectors" >
    <i type="logical" name="LREAL"> F  </i>
    <v name="ROPT">      0.00000000      0.00000000</v>
    <i type="int" name="LMAXPAW">  -100</i>
    <i type="int" name="LMAXMIX">     2</i>
    <i type="logical" name="NLSPLINE"> F  </i>
   </separator>
   <separator name="electronic startup" >
    <i type="int" name="ISTART">     0</i>
    <i type="int" name="ICHARG">     2</i>
    <i type="int" name="INIWAV">     1</i>
   </separator>
   <separator name="electronic spin" >
    <i type="int" name="ISPIN">     1</i>
    <i type="logical" name="LNONCOLLINEAR"> F  </i>
    <v name="MAGMOM">      1.00000000      1.00000000      1.00000000      1.00000000      1.00000000      1.00000000</v>
    <i name="NUPDOWN">     -1.00000000</i>
    <i type="logical" name="LSORBIT"> F  </i>
    <v name="SAXIS">      0.00000000      0.00000000      1.00000000</v>
    <i type="logical" name="LSPIRAL"> F  </i>
    <v name="QSPIRAL">      0.00000000      0.00000000      0.00000000</v>
    <i type="logical" name="LZEROZ"> F  </i>
   </separator>
   <separator name="electronic exchange-correlation" >
    <i type="logical" name="LASPH"> F  </i>
    <i type="logical" name="LMETAGGA"> F  </i>
   </separator>
   <separator name="electronic convergence" >
    <i type="int" name="NELM">    60</i>
    <i type="int" name="NELMDL">     0</i>
    <i type="int" name="NELMIN">     2</i>
    <i name="ENINI">    400.00000000</i>
    <separator name="electronic convergence detail" >
     <i type="logical" name="LDIAG"> T  </i>
     <i type="logical" name="LSUBROT"> F  </i>
     <i name="WEIMIN">      0.00000000</i>
     <i name="EBREAK">      0.00000000</i>
     <i name="DEPER">      0.30000000</i>
     <i type="int" name="NRMM">     4</i>
     <i name="TIME">      0.50000000</i>
    </separator>
   </separator>
   <separator name="electronic mixer" >
    <i name="AMIX">      0.40000000</i>
    <i name="BMIX">      1.00000000</i>
    <i name="AMIN">      0.10000000</i>
    <i name="AMIX_MAG">      1.60000000</i>
    <i name="BMIX_MAG">      1.00000000</i>
    <separator name="electronic mixer details" >
     <i type="int" name="IMIX">     4</i>
     <i type="logical" name="MIXFIRST"> F  </i>
     <i type="int" name="MAXMIX">   -45</i>
     <i name="WC">    100.00000000</i>
     <i type="int" name="INIMIX">     1</i>
     <i type="int" name="MIXPRE">     1</i>
     <i type="int" name="MREMOVE">     5</i>
    </separator>
   </separator>
   <separator name="electronic dipolcorrection" >
    <i type="logical" name="LDIPOL"> F  </i>
    <i type="logical" name="LMONO"> F  </i>
    <i type="int" name="IDIPOL">     0</i>
    <i name="EPSILON">      1.00000000</i>
    <v name="DIPOL">   -100.00000000   -100.00000000   -100.00000000</v>
    <i name="EFIELD">      0.00000000</i>
   </separator>
  </separator>
  <separator name="grids" >
   <i type="int" name="NGX">    30</i>
   <i type="int" name="NGY">    30</i>
   <i type="int" name="NGZ">    20</i>
   <i type="int" name="NGXF">    60</i>
   <i type="int" name="NGYF">    60</i>
   <i type="int" name="NGZF">    40</i>
   <i type="logical" name="ADDGRID"> F  </i>
  </separator>
  <separator name="ionic" >
   <i type="int" name="NSW">     0</i>
   <i type="int" name="IBRION">    -1</i>
   <i type="int" name="MDALGO">     0</i>
   <i type="int" name="ISIF">     3</i>
   <i name="PSTRESS">      0.00000000</i>
   <i name="EDIFFG">      0.00000010</i>
   <i type="int" name="NFREE">     0</i>
   <i name="POTIM">      0.50000000</i>
   <i name="SMASS">     -3.00000000</i>
   <i name="SCALEE">      1.00000000</i>
  </separator>
  <separator name="ionic md" >
   <i name="TEBEG">      0.00010000</i>
   <i name="TEEND">      0.00010000</i>
   <i type="int" name="NBLOCK">     1</i>
   <i type="int" name="KBLOCK">     1</i>
   <i type="int" name="NPACO">   256</i>
   <i name="APACO">     16.00000000</i>
  </separator>
  <separator name="symmetry" >
   <i type="int" name="ISYM">     3</i>
   <i name="SYMPREC">      0.00001000</i>
  </separator>
  <separator name="dos" >
   <i type="int" name="LORBIT">    11</i>
   <v name="RWIGS">     -1.00000000     -1.00000000</v>
   <i type="int" name="NEDOS">   301</i>
   <i name="EMIN">     10.00000000</i>
   <i name="EMAX">    -10.00000000</i>
   <i name="EFERMI">      0.00000000</i>
  </separator>
  <separator name="writing" >
   <i type="int" name="NWRITE">     2</i>
   <i type="logical" name="LWAVE"> F  </i>
   <i type="logical" name="LDOWNSAMPLE"> F  </i>
   <i type="logical" name="LCHARG"> T  </i>
   <i type="logical" name="LPARD"> F  </i>
   <i type="logical" name="LVTOT"> F  </i>
   <i type="logical" name="LVHAR"> F  </i>
   <i type="logical" name="LELF"> F  </i>
   <i type="logical" name="LOPTICS"> F  </i>
   <v name="STM">      0.00000000      0.00000000      0.00000000      0.00000000      0.00000000      0.00000000      0.00000000</v>
  </separator>
  <separator name="performance" >
   <i type="int" name="NPAR">    52</i>
   <i type="int" name="NSIM">     4</i>
   <i type="int" name="NBLK">    -1</i>
   <i type="logical" name="LPLANE"> T  </i>
   <i type="logical" name="LSCALAPACK"> F  </i>
   <i type="logical" name="LSCAAWARE"> F  </i>
   <i type="logical" name="LSCALU"> F  </i>
   <i type="logical" name="LASYNC"> F  </i>
   <i type="logical" name="LORBITALREAL"> F  </i>
  </separator>
  <separator name="miscellaneous" >
   <i type="int" name="IDIOT">     3</i>
   <i type="int" name="ISPECIAL">     0</i>
   <i type="logical" name="LMUSIC"> F  </i>
   <v name="POMASS">     16.00000000     47.88000000</v>
   <v name="DARWINR">      0.00000000      0.00000000</v>
   <v name="DARWINV">      1.00000000      1.00000000</v>
   <i type="logical" name="LCORR"> T  </i>
  </separator>
  <i type="logical" name="GGA_COMPAT"> T  </i>
  <i type="logical" name="LBERRY"> F  </i>
  <i type="int" name="ICORELEVEL">     0</i>
  <i type="logical" name="LDAU"> F  </i>
  <i type="int" name="I_CONSTRAINED_M">     0</i>
  <separator name="electronic exchange-correlation" >
   <i type="string" name="GGA">--</i>
   <i type="int" name="VOSKOWN">     0</i>
   <i type="logical" name="LHFCALC"> T  </i>
   <i type="string" name="PRECFOCK">normal</i>
   <i type="logical" name="LSYMGRAD"> F  </i>
   <i type="logical" name="LHFONE"> F  </i>
   <i type="logical" name="LRHFCALC"> F  </i>
   <i type="logical" name="LTHOMAS"> F  </i>
   <i type="logical" name="LMODELHF"> F  </i>
   <i name="ENCUT4O">     -1.00000000</i>
   <i type="int" name="EXXOEP">     0</i>
   <i type="int" name="FOURORBIT">     0</i>
   <i name="AEXX">      0.20000000</i>
   <i name="HFALPHA">     -1.00000000</i>
   <i name="MCALPHA">      0.00000000</i>
   <i name="ALDAX">      0.80000000</i>
   <i name="AGGAX">      0.80000000</i>
   <i name="ALDAC">      1.00000000</i>
   <i name="AGGAC">      1.00000000</i>
   <i type="int" name="NKREDX">     1</i>
   <i type="int" name="NKREDY">     1</i>
   <i type="int" name="NKREDZ">     1</i>
   <i type="logical" name="SHIFTRED"> F  </i>
   <i type="logical" name="ODDONLY"> F  </i>
   <i type="logical" name="EVENONLY"> F  </i>
   <i type="int" name="LMAXFOCK">     4</i>
   <i type="int" name="NMAXFOCKAE">     1</i>
   <i type="logical" name="LFOCKAEDFT"> F  </i>
   <i name="HFSCREEN">      0.20000000</i>
   <i name="HFSCREENC">      0.20000000</i>
   <i type="int" name="NBANDSGWLOW">     1</i>
  </separator>
  <separator name="vdW DFT" >
   <i type="logical" name="LUSE_VDW"> F  </i>
   <i name="Zab_VDW">     -0.84910000</i>
   <i name="PARAM1">      0.12340000</i>
   <i name="PARAM2">      1.00000000</i>
   <i name="PARAM3">      0.00000000</i>
  </separator>
  <separator name="model GW" >
   <i type="int" name="MODEL_GW">     0</i>
   <i name="MODEL_EPS0">      6.22206596</i>
   <i name="MODEL_ALPHA">      1.00000000</i>
  </separator>
  <separator name="linear response parameters" >
   <i type="logical" name="LEPSILON"> F  </i>
   <i type="logical" name="LRPA"> F  </i>
   <i type="logical" name="LNABLA"> F  </i>
   <i type="logical" name="LVEL"> F  </i>
   <i type="int" name="KINTER">     0</i>
   <i name="CSHIFT">      0.10000000</i>
   <i name="OMEGAMAX">     -1.00000000</i>
   <i name="DEG_THRESHOLD">      0.00200000</i>
   <i name="RTIME">     -0.10000000</i>
   <i name="WPLASMAI">      0.00000000</i>
   <v name="DFIELD">      0.00000000      0.00000000      0.00000000</v>
   <v name="WPLASMA">      0.00000000      0.00000000      0.00000000      0.00000000      0.00000000      0.00000000      0.00000000      0.00000000      0.00000000</v>
  </separator>
  <separator name="orbital magnetization" >
   <i type="logical" name="NUCIND"> F  </i>
   <v name="MAGPOS">      0.00000000      0.00000000      0.00000000</v>
   <i type="logical" name="LNICSALL"> T  </i>
   <i type="logical" name="ORBITALMAG"> F  </i>
   <i type="logical" name="LMAGBLOCH"> F  </i>
   <i type="logical" name="LCHIMAG"> F  </i>
   <i type="logical" name="LGAUGE"> T  </i>
   <i type="int" name="MAGATOM">     0</i>
   <v name="MAGDIPOL">      0.00000000      0.00000000      0.00000000</v>
   <v name="AVECCONST">      0.00000000      0.00000000      0.00000000</v>
  </separator>
  <separator name="response functions" >
   <i type="logical" name="LADDER"> F  </i>
   <i type="logical" name="LRPAFORCE"> F  </i>
   <i type="logical" name="LFXC"> F  </i>
   <i type="logical" name="LHARTREE"> T  </i>
   <i type="int" name="IBSE">     0</i>
   <v type="int" name="KPOINT">    -1     0     0     0</v>
   <i type="logical" name="LTCTE"> F  </i>
   <i type="logical" name="LTETE"> F  </i>
   <i type="logical" name="LTRIPLET"> F  </i>
   <i type="logical" name="LFXCEPS"> F  </i>
   <i type="logical" name="LFXHEG"> F  </i>
   <i type="int" name="NATURALO">     2</i>
   <i type="logical" name="L2ORDER"> F  </i>
   <i type="logical" name="LMP2LT"> F  </i>
   <i type="logical" name="LUSEW"> F  </i>
   <i name="ENCUTGW">     -2.00000000</i>
   <i name="ENCUTGWSOFT">     -2.00000000</i>
   <i name="ENCUTLF">     -1.00000000</i>
   <i type="int" name="LMAXMP2">    -1</i>
   <i name="SCISSOR">      0.00000000</i>
   <i type="int" name="NOMEGA">     0</i>
   <i type="int" name="NOMEGAR">     0</i>
   <i type="int" name="NBANDSGW">    -1</i>
   <i type="int" name="NBANDSO">    -1</i>
   <i type="int" name="NBANDSV">    -1</i>
   <i type="int" name="NELM">     1</i>
   <i type="int" name="NELMHF">     1</i>
   <i type="int" name="DIM">     3</i>
   <i type="int" name="ANTIRES">     0</i>
   <i name="OMEGAMAX">    -30.00000000</i>
   <i name="OMEGAMIN">    -30.00000000</i>
   <i name="OMEGATL">   -200.00000000</i>
   <i type="int" name="OMEGAGRID">   140</i>
   <i name="CSHIFT">     -0.10000000</i>
   <i type="logical" name="SELFENERGY"> F  </i>
   <i type="logical" name="LSPECTRAL"> F  </i>
   <i type="logical" name="LSPECTRALGW"> F  </i>
   <i type="logical" name="LSINGLES"> F  </i>
   <i type="logical" name="LFERMIGW"> F  </i>
   <i type="logical" name="ODDONLYGW"> F  </i>
   <i type="logical" name="EVENONLYGW"> F  </i>
   <i type="int" name="NKREDLFX">     1</i>
   <i type="int" name="NKREDLFY">     1</i>
   <i type="int" name="NKREDLFZ">     1</i>
   <i type="int" name="MAXMEM">  2800</i>
   <i type="int" name="TELESCOPE">     0</i>
   <i type="int" name="TAUPAR">     1</i>
   <i type="int" name="OMEGAPAR">    -1</i>
   <i name="LAMBDA">      1.00000000</i>
  </separator>
  <separator name="External order field" >
   <i name="OFIELD_KAPPA">      0.00000000</i>
   <v name="OFIELD_K">      0.00000000      0.00000000      0.00000000</v>
   <i name="OFIELD_Q6_NEAR">      0.00000000</i>
   <i name="OFIELD_Q6_FAR">      0.00000000</i>
   <i name="OFIELD_A">      0.00000000</i>
  </separator>
 </parameters>
 <atominfo>
  <atoms>       6 </atoms>
  <types>       2 </types>
  <array name="atoms" >
   <dimension dim="1">ion</dimension>
   <field type="string">element</field>
   <field type="int">atomtype</field>
   <set>
    <rc><c>O </c><c>   1</c></rc>
    <rc><c>O </c><c>   1</c></rc>
    <rc><c>O </c><c>   1</c></rc>
    <rc><c>O </c><c>   1</c></rc>
    <rc><c>Ti</c><c>   2</c></rc>
    <rc><c>Ti</c><c>   2</c></rc>
   </set>
  </array>
  <array name="atomtypes" >
   <dimension dim="1">type</dimension>
   <field type="int">atomspertype</field>
   <field type="string">element</field>
   <field>mass</field>
   <field>valence</field>
   <field type="string">pseudopotential</field>
   <set>
    <rc><c>   4</c><c>O </c><c>     16.00000000</c><c>      6.00000000</c><c>  PAW_PBE O 08Apr2002                   </c></rc>
    <rc><c>   2</c><c>Ti</c><c>     47.88000000</c><c>     12.00000000</c><c>  PAW_PBE Ti_sv 26Sep2005               </c></rc>
   </set>
  </array>
 </atominfo>
 <structure name="initialpos" >
  <crystal>
   <varray name="basis" >
    <v>       4.59096672       0.00000000       0.00000000 </v>
    <v>       0.00000000       4.59096672       0.00000000 </v>
    <v>       0.00000000       0.00000000       2.95206776 </v>
   </varray>
   <i name="volume">     62.22065961 </i>
   <varray name="rec_basis" >
    <v>       0.21781905      -0.00000000       0.00000000 </v>
    <v>       0.00000000       0.21781905       0.00000000 </v>
    <v>      -0.00000000      -0.00000000       0.33874561 </v>
   </varray>
  </crystal>
  <varray name="positions" >
   <v>       0.69606687       0.69606687       0.50000000 </v>
   <v>       0.19606687       0.80393313       0.00000000 </v>
   <v>       0.80393313       0.19606687       0.00000000 </v>
   <v>       0.30393313       0.30393313       0.50000000 </v>
   <v>       0.50000000       0.50000000       0.00000000 </v>
   <v>       0.00000000       0.00000000       0.50000000 </v>
  </varray>
 </structure>
 <calculation>
  <scstep>
   <time name="total">    0.59    0.59</time>
   <energy>
    <i name="alphaZ">    199.29430999 </i>
    <i name="ewald">  -3601.14072637 </i>
    <i name="hartreedc">  -1253.06244097 </i>
    <i name="XCdc">    191.45170879 </i>
    <i name="pawpsdc">   3957.09661563 </i>
    <i name="pawaedc">  -3915.13955060 </i>
    <i name="eentropy">     -0.00000000 </i>
    <i name="bandstr">   -290.93928410 </i>
    <i name="atom">   4889.42170687 </i>
    <i name="e_fr_energy">    176.98233924 </i>
    <i name="e_wo_entrp">    176.98233924 </i>
    <i name="e_0_energy">    176.98233924 </i>
   </energy>
  </scstep>
  <scstep>
   <time name="total">    0.81    0.81</time>
   <energy>
    <i name="e_fr_energy">     43.73517874 </i>
    <i name="e_wo_entrp">     43.73517874 </i>
    <i name="e_0_energy">     43.73517874 </i>
   </energy>
  </scstep>
  <scstep>
   <time name="total">    0.44    0.44</time>
   <energy>
    <i name="e_fr_energy">     42.44740143 </i>
    <i name="e_wo_entrp">     42.44740143 </i>
    <i name="e_0_energy">     42.44740143 </i>
   </energy>
  </scstep>
  <scstep>
   <time name="total">    1.14    1.15</time>
   <energy>
    <i name="e_fr_energy">     42.41928728 </i>
    <i name="e_wo_entrp">     42.41928728 </i>
    <i name="e_0_energy">     42.41928728 </i>
   </energy>
  </scstep>
  <scstep>
   <time name="total">    0.52    0.52</time>
   <energy>
    <i name="e_fr_energy">     42.41924477 </i>
    <i name="e_wo_entrp">     42.41924477 </i>
    <i name="e_0_energy">     42.41924477 </i>
   </energy>
  </scstep>
  <scstep>
   <time name="total">  196.46  196.62</time>
   <energy>
    <i name="e_fr_energy">    -41.10363589 </i>
    <i name="e_wo_entrp">    -41.10363589 </i>
    <i name="e_0_energy">    -41.10363589 </i>
   </energy>
  </scstep>
  <scstep>
   <time name="total">  198.06  198.21</time>
   <energy>
    <i name="e_fr_energy">    -57.42892074 </i>
    <i name="e_wo_entrp">    -57.42892074 </i>
    <i name="e_0_energy">    -57.42892074 </i>
   </energy>
  </scstep>
  <scstep>
   <time name="total">  197.95  198.11</time>
   <energy>
    <i name="e_fr_energy">    -61.98085573 </i>
    <i name="e_wo_entrp">    -61.98085573 </i>
    <i name="e_0_energy">    -61.98085573 </i>
   </energy>
  </scstep>
  <scstep>
   <time name="total">  198.07  198.23</time>
   <energy>
    <i name="e_fr_energy">    -63.00110357 </i>
    <i name="e_wo_entrp">    -63.00110357 </i>
    <i name="e_0_energy">    -63.00110357 </i>
   </energy>
  </scstep>
  <scstep>
   <time name="total">  198.20  198.34</time>
   <energy>
    <i name="e_fr_energy">    -63.55025928 </i>
    <i name="e_wo_entrp">    -63.55025928 </i>
    <i name="e_0_energy">    -63.55025928 </i>
   </energy>
  </scstep>
  <scstep>
   <time name="total">  198.10  198.26</time>
   <energy>
    <i name="e_fr_energy">    -63.75280925 </i>
    <i name="e_wo_entrp">    -63.75280925 </i>
    <i name="e_0_energy">    -63.75280925 </i>
   </energy>
  </scstep>
  <scstep>
   <time name="total">  197.76  197.92</time>
   <energy>
    <i name="e_fr_energy">    -63.83062896 </i>
    <i name="e_wo_entrp">    -63.83062896 </i>
    <i name="e_0_energy">    -63.83062896 </i>
   </energy>
  </scstep>
  <scstep>
   <time name="total">  197.73  197.88</time>
   <energy>
    <i name="e_fr_energy">    -63.85685837 </i>
    <i name="e_wo_entrp">    -63.85685837 </i>
    <i name="e_0_energy">    -63.85685837 </i>
   </energy>
  </scstep>
  <scstep>
   <time name="total">  197.80  197.96</time>
   <energy>
    <i name="e_fr_energy">    -63.86572470 </i>
    <i name="e_wo_entrp">    -63.86572470 </i>
    <i name="e_0_energy">    -63.86572470 </i>
   </energy>
  </scstep>
  <scstep>
   <time name="total">  197.78  197.92</time>
   <energy>
    <i name="e_fr_energy">    -63.86924396 </i>
    <i name="e_wo_entrp">    -63.86924396 </i>
    <i name="e_0_energy">    -63.86924396 </i>
   </energy>
  </scstep>
  <scstep>
   <time name="total">  197.75  197.91</time>
   <energy>
    <i name="e_fr_energy">    -63.87062775 </i>
    <i name="e_wo_entrp">    -63.87062775 </i>
    <i name="e_0_energy">    -63.87062775 </i>
   </energy>
  </scstep>
  <scstep>
   <time name="total">  197.71  197.87</time>
   <energy>
    <i name="e_fr_energy">    -63.87108875 </i>
    <i name="e_wo_entrp">    -63.87108875 </i>
    <i name="e_0_energy">    -63.87108875 </i>
   </energy>
  </scstep>
  <scstep>
   <time name="total">  197.55  197.69</time>
   <energy>
    <i name="e_fr_energy">    -63.87130181 </i>
    <i name="e_wo_entrp">    -63.87130181 </i>
    <i name="e_0_energy">    -63.87130181 </i>
   </energy>
  </scstep>
  <scstep>
   <time name="total">  197.54  197.70</time>
   <energy>
    <i name="e_fr_energy">    -63.87138043 </i>
    <i name="e_wo_entrp">    -63.87138043 </i>
    <i name="e_0_energy">    -63.87138043 </i>
   </energy>
  </scstep>
  <scstep>
   <time name="total">  197.57  197.75</time>
   <energy>
    <i name="e_fr_energy">    -63.87140983 </i>
    <i name="e_wo_entrp">    -63.87140983 </i>
    <i name="e_0_energy">    -63.87140983 </i>
   </energy>
  </scstep>
  <scstep>
   <time name="total">  197.57  197.70</time>
   <energy>
    <i name="e_fr_energy">    -63.87142452 </i>
    <i name="e_wo_entrp">    -63.87142452 </i>
    <i name="e_0_energy">    -63.87142452 </i>
   </energy>
  </scstep>
  <scstep>
   <time name="total">  197.43  197.59</time>
   <energy>
    <i name="e_fr_energy">    -63.87142983 </i>
    <i name="e_wo_entrp">    -63.87142983 </i>
    <i name="e_0_energy">    -63.87142983 </i>
   </energy>
  </scstep>
  <scstep>
   <time name="total">  197.33  197.49</time>
   <energy>
    <i name="e_fr_energy">    -63.87143151 </i>
    <i name="e_wo_entrp">    -63.87143151 </i>
    <i name="e_0_energy">    -63.87143151 </i>
   </energy>
  </scstep>
  <scstep>
   <time name="total">  197.46  197.60</time>
   <energy>
    <i name="e_fr_energy">    -63.87143210 </i>
    <i name="e_wo_entrp">    -63.87143210 </i>
    <i name="e_0_energy">    -63.87143210 </i>
   </energy>
  </scstep>
  <scstep>
   <time name="total">  197.13  197.54</time>
   <energy>
    <i name="e_fr_energy">    -63.87143233 </i>
    <i name="e_wo_entrp">    -63.87143233 </i>
    <i name="e_0_energy">    -63.87143233 </i>
   </energy>
  </scstep>
  <scstep>
   <time name="total">  197.35  197.59</time>
   <energy>
    <i name="e_fr_energy">    -63.87143250 </i>
    <i name="e_wo_entrp">    -63.87143250 </i>
    <i name="e_0_energy">    -63.87143250 </i>
   </energy>
  </scstep>
  <scstep>
   <time name="total">  494.13  494.48</time>
   <energy>
    <i name="e_fr_energy">    -63.87143260 </i>
    <i name="e_wo_entrp">    -63.87143260 </i>
    <i name="e_0_energy">    -63.87143260 </i>
   </energy>
  </scstep>
  <scstep>
   <time name="total">  197.74  197.90</time>
   <energy>
    <i name="e_fr_energy">    -63.87143161 </i>
    <i name="e_wo_entrp">    -63.87143161 </i>
    <i name="e_0_energy">    -63.87143161 </i>
   </energy>
  </scstep>
  <scstep>
   <time name="total">  197.42  197.58</time>
   <energy>
    <i name="e_fr_energy">    -63.87143252 </i>
    <i name="e_wo_entrp">    -63.87143252 </i>
    <i name="e_0_energy">    -63.87143252 </i>
   </energy>
  </scstep>
  <scstep>
   <time name="total">  197.20  197.35</time>
   <energy>
    <i name="e_fr_energy">    -63.87143259 </i>
    <i name="e_wo_entrp">    -63.87143259 </i>
    <i name="e_0_energy">    -63.87143259 </i>
   </energy>
  </scstep>
  <scstep>
   <time name="total">  197.22  197.38</time>
   <energy>
    <i name="e_fr_energy">    -63.87143263 </i>
    <i name="e_wo_entrp">    -63.87143263 </i>
    <i name="e_0_energy">    -63.87143263 </i>
   </energy>
  </scstep>
  <scstep>
   <time name="total">  295.65  295.90</time>
   <energy>
    <i name="alphaZ">    199.29430999 </i>
    <i name="ewald">  -3601.14072637 </i>
    <i name="hartreedc">  -1224.28921842 </i>
    <i name="XCdc">    192.16016417 </i>
    <i name="pawpsdc">   5727.46980431 </i>
    <i name="pawaedc">  -5679.42588258 </i>
    <i name="eentropy">     -0.00000000 </i>
    <i name="bandstr">   -689.07701660 </i>
    <i name="atom">   4889.42170687 </i>
    <i name="e_fr_energy">    -63.87143263 </i>
    <i name="e_wo_entrp">    -63.87143263 </i>
    <i name="e_0_energy">    -63.87143263 </i>
   </energy>
  </scstep>
  <structure>
   <crystal>
    <varray name="basis" >
     <v>       4.59096672       0.00000000       0.00000000 </v>
     <v>       0.00000000       4.59096672       0.00000000 </v>
     <v>       0.00000000       0.00000000       2.95206776 </v>
    </varray>
    <i name="volume">     62.22065961 </i>
    <varray name="rec_basis" >
     <v>       0.21781905      -0.00000000       0.00000000 </v>
     <v>       0.00000000       0.21781905       0.00000000 </v>
     <v>      -0.00000000      -0.00000000       0.33874561 </v>
    </varray>
   </crystal>
   <varray name="positions" >
    <v>       0.69606687       0.69606687       0.50000000 </v>
    <v>       0.19606687       0.80393313       0.00000000 </v>
    <v>       0.80393313       0.19606687       0.00000000 </v>
    <v>       0.30393313       0.30393313       0.50000000 </v>
    <v>       0.50000000       0.50000000       0.00000000 </v>
    <v>       0.00000000       0.00000000       0.50000000 </v>
   </varray>
  </structure>
  <varray name="forces" >
   <v>      -0.11177223      -0.11177223      -0.00000000 </v>
   <v>      -0.11177223       0.11177223       0.00000000 </v>
   <v>       0.11177223      -0.11177223       0.00000000 </v>
   <v>       0.11177223       0.11177223       0.00000000 </v>
   <v>       0.00000000       0.00000000       0.00000000 </v>
   <v>       0.00000000       0.00000000       0.00000000 </v>
  </varray>
  <varray name="stress" >
   <v>     -62.39320005      -0.00000000      -0.00000000 </v>
   <v>      -0.00000000     -62.39320005      -0.00000000 </v>
   <v>      -0.00000000      -0.00000000     -64.49549770 </v>
  </varray>
  <energy>
   <i name="e_fr_energy">    -63.87143263 </i>
   <i name="e_wo_entrp">    -63.87143263 </i>
   <i name="e_0_energy">     -0.00000000 </i>
  </energy>
  <time name="totalsc"> 6186.89 6192.05</time>
  <eigenvalues>
   <array>
    <dimension dim="1">band</dimension>
    <dimension dim="2">kpoint</dimension>
    <dimension dim="3">spin</dimension>
    <field>eigene</field>
    <field>occ</field>
    <set>
     <set comment="spin 1">
      <set comment="kpoint 1">
       <r>  -56.2979    1.0000 </r>
       <r>  -56.2807    1.0000 </r>
       <r>  -31.2937    1.0000 </r>
       <r>  -31.2937    1.0000 </r>
       <r>  -31.1171    1.0000 </r>
       <r>  -31.1171    1.0000 </r>
       <r>  -31.0651    1.0000 </r>
       <r>  -31.0232    1.0000 </r>
       <r>  -15.5202    1.0000 </r>
       <r>  -14.2816    1.0000 </r>
       <r>  -13.4953    1.0000 </r>
       <r>  -13.4953    1.0000 </r>
       <r>   -2.1120    1.0000 </r>
       <r>   -1.6472    1.0000 </r>
       <r>   -1.1740    1.0000 </r>
       <r>   -0.0135    1.0000 </r>
       <r>   -0.0135    1.0000 </r>
       <r>    1.3319    1.0000 </r>
       <r>    1.3319    1.0000 </r>
       <r>    1.9512    1.0000 </r>
       <r>    3.3766    1.0000 </r>
       <r>    3.6665    1.0000 </r>
       <r>    3.6665    1.0000 </r>
       <r>    4.1293    1.0000 </r>
       <r>    7.1650    0.0000 </r>
       <r>    7.4654    0.0000 </r>
       <r>    7.7541    0.0000 </r>
       <r>    7.8615    0.0000 </r>
       <r>    7.8615    0.0000 </r>
       <r>    9.7251    0.0000 </r>
       <r>   10.1660    0.0000 </r>
       <r>   12.0801    0.0000 </r>
       <r>   12.0801    0.0000 </r>
       <r>   13.2730    0.0000 </r>
       <r>   13.3449    0.0000 </r>
       <r>   17.0893    0.0000 </r>
       <r>   17.0893    0.0000 </r>
       <r>   20.3185    0.0000 </r>
       <r>   21.2467    0.0000 </r>
       <r>   22.0737    0.0000 </r>
       <r>   24.2514    0.0000 </r>
       <r>   24.9676    0.0000 </r>
       <r>   25.3056    0.0000 </r>
       <r>   25.3056    0.0000 </r>
       <r>   26.9294    0.0000 </r>
       <r>   28.9624    0.0000 </r>
       <r>   29.6896    0.0000 </r>
       <r>   29.6896    0.0000 </r>
       <r>   30.8447    0.0000 </r>
       <r>   31.2751    0.0000 </r>
       <r>   31.2751    0.0000 </r>
       <r>   31.7869    0.0000 </r>
      </set>
      <set comment="kpoint 2">
       <r>  -56.2959    1.0000 </r>
       <r>  -56.2815    1.0000 </r>
       <r>  -31.2795    1.0000 </r>
       <r>  -31.2785    1.0000 </r>
       <r>  -31.1337    1.0000 </r>
       <r>  -31.1326    1.0000 </r>
       <r>  -31.0611    1.0000 </r>
       <r>  -31.0272    1.0000 </r>
       <r>  -15.3703    1.0000 </r>
       <r>  -14.2895    1.0000 </r>
       <r>  -13.6363    1.0000 </r>
       <r>  -13.5518    1.0000 </r>
       <r>   -1.8329    1.0000 </r>
       <r>   -1.4704    1.0000 </r>
       <r>   -0.8893    1.0000 </r>
       <r>    0.0043    1.0000 </r>
       <r>    0.0150    1.0000 </r>
       <r>    1.0895    1.0000 </r>
       <r>    1.2695    1.0000 </r>
       <r>    1.9914    1.0000 </r>
       <r>    2.9576    1.0000 </r>
       <r>    3.1278    1.0000 </r>
       <r>    3.3675    1.0000 </r>
       <r>    3.9715    1.0000 </r>
       <r>    7.3807    0.0000 </r>
       <r>    7.7440    0.0000 </r>
       <r>    8.0304    0.0000 </r>
       <r>    8.0461    0.0000 </r>
       <r>    8.0867    0.0000 </r>
       <r>    9.9130    0.0000 </r>
       <r>   10.0570    0.0000 </r>
       <r>   11.9222    0.0000 </r>
       <r>   11.9539    0.0000 </r>
       <r>   12.9985    0.0000 </r>
       <r>   13.8455    0.0000 </r>
       <r>   17.0172    0.0000 </r>
       <r>   17.4148    0.0000 </r>
       <r>   20.2780    0.0000 </r>
       <r>   20.9977    0.0000 </r>
       <r>   21.9664    0.0000 </r>
       <r>   24.0169    0.0000 </r>
       <r>   25.1825    0.0000 </r>
       <r>   25.3604    0.0000 </r>
       <r>   25.6853    0.0000 </r>
       <r>   27.3398    0.0000 </r>
       <r>   28.1591    0.0000 </r>
       <r>   28.4415    0.0000 </r>
       <r>   28.7285    0.0000 </r>
       <r>   29.8416    0.0000 </r>
       <r>   31.3165    0.0000 </r>
       <r>   31.5778    0.0000 </r>
       <r>   32.1771    0.0000 </r>
      </set>
      <set comment="kpoint 3">
       <r>  -56.2918    1.0000 </r>
       <r>  -56.2856    1.0000 </r>
       <r>  -31.2446    1.0000 </r>
       <r>  -31.2423    1.0000 </r>
       <r>  -31.1720    1.0000 </r>
       <r>  -31.1698    1.0000 </r>
       <r>  -31.0506    1.0000 </r>
       <r>  -31.0377    1.0000 </r>
       <r>  -14.9744    1.0000 </r>
       <r>  -14.5020    1.0000 </r>
       <r>  -13.7812    1.0000 </r>
       <r>  -13.6863    1.0000 </r>
       <r>   -1.3147    1.0000 </r>
       <r>   -1.1588    1.0000 </r>
       <r>    0.0354    1.0000 </r>
       <r>    0.0392    1.0000 </r>
       <r>    0.0513    1.0000 </r>
       <r>    0.7222    1.0000 </r>
       <r>    0.9353    1.0000 </r>
       <r>    1.4992    1.0000 </r>
       <r>    2.1843    1.0000 </r>
       <r>    2.6116    1.0000 </r>
       <r>    3.1957    1.0000 </r>
       <r>    3.5397    1.0000 </r>
       <r>    7.7570    0.0000 </r>
       <r>    7.9449    0.0000 </r>
       <r>    8.3592    0.0000 </r>
       <r>    8.4176    0.0000 </r>
       <r>    8.6732    0.0000 </r>
       <r>    9.3624    0.0000 </r>
       <r>   10.9777    0.0000 </r>
       <r>   11.6632    0.0000 </r>
       <r>   11.7015    0.0000 </r>
       <r>   12.1324    0.0000 </r>
       <r>   15.0781    0.0000 </r>
       <r>   16.3489    0.0000 </r>
       <r>   18.3746    0.0000 </r>
       <r>   19.6350    0.0000 </r>
       <r>   21.1554    0.0000 </r>
       <r>   21.7330    0.0000 </r>
       <r>   23.8697    0.0000 </r>
       <r>   24.7057    0.0000 </r>
       <r>   25.2607    0.0000 </r>
       <r>   26.2563    0.0000 </r>
       <r>   26.4365    0.0000 </r>
       <r>   27.8088    0.0000 </r>
       <r>   28.4006    0.0000 </r>
       <r>   28.9242    0.0000 </r>
       <r>   29.7710    0.0000 </r>
       <r>   29.9670    0.0000 </r>
       <r>   31.7761    0.0000 </r>
       <r>   31.7806    0.0000 </r>
      </set>
      <set comment="kpoint 4">
       <r>  -56.2944    1.0000 </r>
       <r>  -56.2830    1.0000 </r>
       <r>  -31.2991    1.0000 </r>
       <r>  -31.2399    1.0000 </r>
       <r>  -31.1740    1.0000 </r>
       <r>  -31.1132    1.0000 </r>
       <r>  -31.0579    1.0000 </r>
       <r>  -31.0304    1.0000 </r>
       <r>  -15.2560    1.0000 </r>
       <r>  -14.3299    1.0000 </r>
       <r>  -13.7488    1.0000 </r>
       <r>  -13.5430    1.0000 </r>
       <r>   -1.8955    1.0000 </r>
       <r>   -1.1506    1.0000 </r>
       <r>   -0.6541    1.0000 </r>
       <r>   -0.0384    1.0000 </r>
       <r>    0.0558    1.0000 </r>
       <r>    0.8327    1.0000 </r>
       <r>    1.4310    1.0000 </r>
       <r>    2.0577    1.0000 </r>
       <r>    2.5396    1.0000 </r>
       <r>    3.0117    1.0000 </r>
       <r>    3.1771    1.0000 </r>
       <r>    3.8542    1.0000 </r>
       <r>    7.2393    0.0000 </r>
       <r>    7.8707    0.0000 </r>
       <r>    7.9248    0.0000 </r>
       <r>    8.3099    0.0000 </r>
       <r>    8.3911    0.0000 </r>
       <r>    9.7988    0.0000 </r>
       <r>   10.2562    0.0000 </r>
       <r>   11.6823    0.0000 </r>
       <r>   12.0776    0.0000 </r>
       <r>   12.6994    0.0000 </r>
       <r>   14.3651    0.0000 </r>
       <r>   17.2674    0.0000 </r>
       <r>   17.4084    0.0000 </r>
       <r>   20.2545    0.0000 </r>
       <r>   20.6860    0.0000 </r>
       <r>   21.6260    0.0000 </r>
       <r>   23.9235    0.0000 </r>
       <r>   25.0008    0.0000 </r>
       <r>   25.7379    0.0000 </r>
       <r>   26.3127    0.0000 </r>
       <r>   27.6454    0.0000 </r>
       <r>   27.8768    0.0000 </r>
       <r>   28.2938    0.0000 </r>
       <r>   28.4364    0.0000 </r>
       <r>   28.6099    0.0000 </r>
       <r>   30.5619    0.0000 </r>
       <r>   30.8912    0.0000 </r>
       <r>   32.2387    0.0000 </r>
      </set>
      <set comment="kpoint 5">
       <r>  -56.2911    1.0000 </r>
       <r>  -56.2864    1.0000 </r>
       <r>  -31.2874    1.0000 </r>
       <r>  -31.2498    1.0000 </r>
       <r>  -31.1653    1.0000 </r>
       <r>  -31.1267    1.0000 </r>
       <r>  -31.0494    1.0000 </r>
       <r>  -31.0389    1.0000 </r>
       <r>  -14.9504    1.0000 </r>
       <r>  -14.5727    1.0000 </r>
       <r>  -13.7636    1.0000 </r>
       <r>  -13.6395    1.0000 </r>
       <r>   -1.6621    1.0000 </r>
       <r>   -1.2129    1.0000 </r>
       <r>   -0.0267    1.0000 </r>
       <r>    0.0311    1.0000 </r>
       <r>    0.0825    1.0000 </r>
       <r>    0.8754    1.0000 </r>
       <r>    1.2749    1.0000 </r>
       <r>    1.9361    1.0000 </r>
       <r>    2.2998    1.0000 </r>
       <r>    2.6835    1.0000 </r>
       <r>    2.8832    1.0000 </r>
       <r>    3.3670    1.0000 </r>
       <r>    7.4818    0.0000 </r>
       <r>    7.8485    0.0000 </r>
       <r>    8.0672    0.0000 </r>
       <r>    8.3944    0.0000 </r>
       <r>    8.8485    0.0000 </r>
       <r>    9.3975    0.0000 </r>
       <r>   10.9816    0.0000 </r>
       <r>   11.6805    0.0000 </r>
       <r>   11.9240    0.0000 </r>
       <r>   11.9336    0.0000 </r>
       <r>   15.5033    0.0000 </r>
       <r>   16.6624    0.0000 </r>
       <r>   18.3627    0.0000 </r>
       <r>   19.6339    0.0000 </r>
       <r>   20.6620    0.0000 </r>
       <r>   21.1301    0.0000 </r>
       <r>   23.8878    0.0000 </r>
       <r>   24.4618    0.0000 </r>
       <r>   26.2131    0.0000 </r>
       <r>   26.7578    0.0000 </r>
       <r>   26.7652    0.0000 </r>
       <r>   27.9669    0.0000 </r>
       <r>   28.3713    0.0000 </r>
       <r>   28.4638    0.0000 </r>
       <r>   28.6162    0.0000 </r>
       <r>   29.6058    0.0000 </r>
       <r>   31.0093    0.0000 </r>
       <r>   32.6411    0.0000 </r>
      </set>
      <set comment="kpoint 6">
       <r>  -56.2899    1.0000 </r>
       <r>  -56.2880    1.0000 </r>
       <r>  -31.3079    1.0000 </r>
       <r>  -31.2926    1.0000 </r>
       <r>  -31.1227    1.0000 </r>
       <r>  -31.1068    1.0000 </r>
       <r>  -31.0462    1.0000 </r>
       <r>  -31.0421    1.0000 </r>
       <r>  -14.8688    1.0000 </r>
       <r>  -14.7284    1.0000 </r>
       <r>  -13.6833    1.0000 </r>
       <r>  -13.6194    1.0000 </r>
       <r>   -1.8644    1.0000 </r>
       <r>   -1.6514    1.0000 </r>
       <r>   -0.0812    1.0000 </r>
       <r>   -0.0491    1.0000 </r>
       <r>    0.5907    1.0000 </r>
       <r>    1.0881    1.0000 </r>
       <r>    1.7075    1.0000 </r>
       <r>    2.1799    1.0000 </r>
       <r>    2.5577    1.0000 </r>
       <r>    2.5610    1.0000 </r>
       <r>    2.7277    1.0000 </r>
       <r>    3.1582    1.0000 </r>
       <r>    7.1987    0.0000 </r>
       <r>    7.4630    0.0000 </r>
       <r>    7.8867    0.0000 </r>
       <r>    8.0761    0.0000 </r>
       <r>    9.1632    0.0000 </r>
       <r>    9.3652    0.0000 </r>
       <r>   11.1527    0.0000 </r>
       <r>   11.5056    0.0000 </r>
       <r>   11.9293    0.0000 </r>
       <r>   12.0690    0.0000 </r>
       <r>   16.3828    0.0000 </r>
       <r>   17.0165    0.0000 </r>
       <r>   18.4955    0.0000 </r>
       <r>   19.2906    0.0000 </r>
       <r>   20.1927    0.0000 </r>
       <r>   20.4345    0.0000 </r>
       <r>   23.8981    0.0000 </r>
       <r>   24.1675    0.0000 </r>
       <r>   26.8334    0.0000 </r>
       <r>   27.1603    0.0000 </r>
       <r>   27.5129    0.0000 </r>
       <r>   27.5486    0.0000 </r>
       <r>   27.6878    0.0000 </r>
       <r>   28.1073    0.0000 </r>
       <r>   28.6804    0.0000 </r>
       <r>   29.1330    0.0000 </r>
       <r>   31.9473    0.0000 </r>
       <r>   32.2265    0.0000 </r>
      </set>
      <set comment="kpoint 7">
       <r>  -56.2890    1.0000 </r>
       <r>  -56.2729    1.0000 </r>
       <r>  -31.2701    1.0000 </r>
       <r>  -31.2701    1.0000 </r>
       <r>  -31.1558    1.0000 </r>
       <r>  -31.1194    1.0000 </r>
       <r>  -31.1130    1.0000 </r>
       <r>  -31.1130    1.0000 </r>
       <r>  -15.2981    1.0000 </r>
       <r>  -14.1562    1.0000 </r>
       <r>  -13.5983    1.0000 </r>
       <r>  -13.5983    1.0000 </r>
       <r>   -1.8014    1.0000 </r>
       <r>   -1.4176    1.0000 </r>
       <r>   -0.9166    1.0000 </r>
       <r>   -0.2303    1.0000 </r>
       <r>   -0.2303    1.0000 </r>
       <r>    1.3371    1.0000 </r>
       <r>    1.7446    1.0000 </r>
       <r>    1.7446    1.0000 </r>
       <r>    2.5645    1.0000 </r>
       <r>    3.2645    1.0000 </r>
       <r>    3.2645    1.0000 </r>
       <r>    4.0028    1.0000 </r>
       <r>    7.6355    0.0000 </r>
       <r>    7.6493    0.0000 </r>
       <r>    7.6586    0.0000 </r>
       <r>    8.1014    0.0000 </r>
       <r>    8.1014    0.0000 </r>
       <r>    9.9833    0.0000 </r>
       <r>   10.0517    0.0000 </r>
       <r>   11.7716    0.0000 </r>
       <r>   11.7716    0.0000 </r>
       <r>   12.9359    0.0000 </r>
       <r>   13.9840    0.0000 </r>
       <r>   17.9605    0.0000 </r>
       <r>   17.9605    0.0000 </r>
       <r>   20.3599    0.0000 </r>
       <r>   21.0400    0.0000 </r>
       <r>   22.3590    0.0000 </r>
       <r>   23.9621    0.0000 </r>
       <r>   24.1397    0.0000 </r>
       <r>   25.0058    0.0000 </r>
       <r>   25.0058    0.0000 </r>
       <r>   26.0462    0.0000 </r>
       <r>   29.0717    0.0000 </r>
       <r>   29.5780    0.0000 </r>
       <r>   29.5780    0.0000 </r>
       <r>   30.3329    0.0000 </r>
       <r>   30.3329    0.0000 </r>
       <r>   31.7416    0.0000 </r>
       <r>   33.0805    0.0000 </r>
      </set>
      <set comment="kpoint 8">
       <r>  -56.2876    1.0000 </r>
       <r>  -56.2744    1.0000 </r>
       <r>  -31.2595    1.0000 </r>
       <r>  -31.2563    1.0000 </r>
       <r>  -31.1538    1.0000 </r>
       <r>  -31.1445    1.0000 </r>
       <r>  -31.1232    1.0000 </r>
       <r>  -31.1063    1.0000 </r>
       <r>  -15.1616    1.0000 </r>
       <r>  -14.1530    1.0000 </r>
       <r>  -13.7363    1.0000 </r>
       <r>  -13.6470    1.0000 </r>
       <r>   -1.5575    1.0000 </r>
       <r>   -1.2317    1.0000 </r>
       <r>   -0.7663    1.0000 </r>
       <r>   -0.2543    1.0000 </r>
       <r>   -0.0265    1.0000 </r>
       <r>    1.1802    1.0000 </r>
       <r>    1.4385    1.0000 </r>
       <r>    1.7782    1.0000 </r>
       <r>    2.1632    1.0000 </r>
       <r>    3.0576    1.0000 </r>
       <r>    3.1135    1.0000 </r>
       <r>    3.8444    1.0000 </r>
       <r>    7.7055    0.0000 </r>
       <r>    7.8609    0.0000 </r>
       <r>    7.9620    0.0000 </r>
       <r>    8.1467    0.0000 </r>
       <r>    8.3670    0.0000 </r>
       <r>    9.7767    0.0000 </r>
       <r>   10.3080    0.0000 </r>
       <r>   11.4803    0.0000 </r>
       <r>   11.6469    0.0000 </r>
       <r>   12.8362    0.0000 </r>
       <r>   14.4698    0.0000 </r>
       <r>   17.7477    0.0000 </r>
       <r>   18.2088    0.0000 </r>
       <r>   20.4469    0.0000 </r>
       <r>   20.9897    0.0000 </r>
       <r>   22.1651    0.0000 </r>
       <r>   23.8662    0.0000 </r>
       <r>   23.8932    0.0000 </r>
       <r>   24.4948    0.0000 </r>
       <r>   25.6906    0.0000 </r>
       <r>   26.3805    0.0000 </r>
       <r>   27.8497    0.0000 </r>
       <r>   28.8720    0.0000 </r>
       <r>   29.3499    0.0000 </r>
       <r>   29.8754    0.0000 </r>
       <r>   30.4609    0.0000 </r>
       <r>   32.0008    0.0000 </r>
       <r>   32.6314    0.0000 </r>
      </set>
      <set comment="kpoint 9">
       <r>  -56.2831    1.0000 </r>
       <r>  -56.2782    1.0000 </r>
       <r>  -31.2307    1.0000 </r>
       <r>  -31.2220    1.0000 </r>
       <r>  -31.1833    1.0000 </r>
       <r>  -31.1730    1.0000 </r>
       <r>  -31.1255    1.0000 </r>
       <r>  -31.1126    1.0000 </r>
       <r>  -14.7963    1.0000 </r>
       <r>  -14.3474    1.0000 </r>
       <r>  -13.8622    1.0000 </r>
       <r>  -13.7620    1.0000 </r>
       <r>   -1.0630    1.0000 </r>
       <r>   -0.8876    1.0000 </r>
       <r>   -0.3962    1.0000 </r>
       <r>   -0.2926    1.0000 </r>
       <r>    0.4100    1.0000 </r>
       <r>    0.8791    1.0000 </r>
       <r>    1.1484    1.0000 </r>
       <r>    1.4142    1.0000 </r>
       <r>    1.5902    1.0000 </r>
       <r>    2.2764    1.0000 </r>
       <r>    3.2388    1.0000 </r>
       <r>    3.5560    1.0000 </r>
       <r>    7.9733    0.0000 </r>
       <r>    8.1224    0.0000 </r>
       <r>    8.3159    0.0000 </r>
       <r>    8.4334    0.0000 </r>
       <r>    8.8044    0.0000 </r>
       <r>    9.2792    0.0000 </r>
       <r>   10.8641    0.0000 </r>
       <r>   11.0742    0.0000 </r>
       <r>   11.5731    0.0000 </r>
       <r>   12.2555    0.0000 </r>
       <r>   15.6457    0.0000 </r>
       <r>   16.9006    0.0000 </r>
       <r>   19.0305    0.0000 </r>
       <r>   20.1417    0.0000 </r>
       <r>   21.2636    0.0000 </r>
       <r>   21.8562    0.0000 </r>
       <r>   23.6178    0.0000 </r>
       <r>   23.7801    0.0000 </r>
       <r>   23.9173    0.0000 </r>
       <r>   25.1364    0.0000 </r>
       <r>   26.9181    0.0000 </r>
       <r>   27.8245    0.0000 </r>
       <r>   28.1308    0.0000 </r>
       <r>   29.3907    0.0000 </r>
       <r>   29.7550    0.0000 </r>
       <r>   30.2927    0.0000 </r>
       <r>   32.0050    0.0000 </r>
       <r>   32.3880    0.0000 </r>
      </set>
      <set comment="kpoint 10">
       <r>  -56.2863    1.0000 </r>
       <r>  -56.2755    1.0000 </r>
       <r>  -31.2751    1.0000 </r>
       <r>  -31.2228    1.0000 </r>
       <r>  -31.1816    1.0000 </r>
       <r>  -31.1419    1.0000 </r>
       <r>  -31.1142    1.0000 </r>
       <r>  -31.1095    1.0000 </r>
       <r>  -15.0552    1.0000 </r>
       <r>  -14.1813    1.0000 </r>
       <r>  -13.8390    1.0000 </r>
       <r>  -13.6438    1.0000 </r>
       <r>   -1.6389    1.0000 </r>
       <r>   -0.8936    1.0000 </r>
       <r>   -0.7165    1.0000 </r>
       <r>   -0.2126    1.0000 </r>
       <r>    0.0721    1.0000 </r>
       <r>    0.9857    1.0000 </r>
       <r>    1.4794    1.0000 </r>
       <r>    1.7825    1.0000 </r>
       <r>    1.9636    1.0000 </r>
       <r>    2.9934    1.0000 </r>
       <r>    3.0425    1.0000 </r>
       <r>    3.6381    1.0000 </r>
       <r>    7.6010    0.0000 </r>
       <r>    7.7534    0.0000 </r>
       <r>    8.1416    0.0000 </r>
       <r>    8.4524    0.0000 </r>
       <r>    8.4971    0.0000 </r>
       <r>    9.6380    0.0000 </r>
       <r>   10.4714    0.0000 </r>
       <r>   11.2145    0.0000 </r>
       <r>   11.7730    0.0000 </r>
       <r>   12.6390    0.0000 </r>
       <r>   14.9331    0.0000 </r>
       <r>   17.8642    0.0000 </r>
       <r>   18.1244    0.0000 </r>
       <r>   20.5020    0.0000 </r>
       <r>   20.8873    0.0000 </r>
       <r>   21.6463    0.0000 </r>
       <r>   23.8155    0.0000 </r>
       <r>   23.8205    0.0000 </r>
       <r>   25.2206    0.0000 </r>
       <r>   25.3269    0.0000 </r>
       <r>   26.4933    0.0000 </r>
       <r>   27.6619    0.0000 </r>
       <r>   27.9763    0.0000 </r>
       <r>   29.4468    0.0000 </r>
       <r>   29.7085    0.0000 </r>
       <r>   30.3883    0.0000 </r>
       <r>   31.8556    0.0000 </r>
       <r>   32.1473    0.0000 </r>
      </set>
      <set comment="kpoint 11">
       <r>  -56.2827    1.0000 </r>
       <r>  -56.2787    1.0000 </r>
       <r>  -31.2656    1.0000 </r>
       <r>  -31.2326    1.0000 </r>
       <r>  -31.1751    1.0000 </r>
       <r>  -31.1435    1.0000 </r>
       <r>  -31.1204    1.0000 </r>
       <r>  -31.1106    1.0000 </r>
       <r>  -14.7699    1.0000 </r>
       <r>  -14.4150    1.0000 </r>
       <r>  -13.8412    1.0000 </r>
       <r>  -13.7283    1.0000 </r>
       <r>   -1.4154    1.0000 </r>
       <r>   -0.9495    1.0000 </r>
       <r>   -0.5452    1.0000 </r>
       <r>   -0.3517    1.0000 </r>
       <r>    0.6035    1.0000 </r>
       <r>    1.1272    1.0000 </r>
       <r>    1.3705    1.0000 </r>
       <r>    1.6345    1.0000 </r>
       <r>    1.9263    1.0000 </r>
       <r>    2.3730    1.0000 </r>
       <r>    2.9786    1.0000 </r>
       <r>    3.2769    1.0000 </r>
       <r>    7.7970    0.0000 </r>
       <r>    8.0069    0.0000 </r>
       <r>    8.1348    0.0000 </r>
       <r>    8.4635    0.0000 </r>
       <r>    8.8168    0.0000 </r>
       <r>    9.2576    0.0000 </r>
       <r>   10.9474    0.0000 </r>
       <r>   11.2369    0.0000 </r>
       <r>   11.6626    0.0000 </r>
       <r>   12.0932    0.0000 </r>
       <r>   15.9796    0.0000 </r>
       <r>   17.1113    0.0000 </r>
       <r>   18.9232    0.0000 </r>
       <r>   20.1181    0.0000 </r>
       <r>   20.9139    0.0000 </r>
       <r>   21.1741    0.0000 </r>
       <r>   23.6442    0.0000 </r>
       <r>   23.6810    0.0000 </r>
       <r>   24.8092    0.0000 </r>
       <r>   25.3776    0.0000 </r>
       <r>   26.6226    0.0000 </r>
       <r>   27.0501    0.0000 </r>
       <r>   28.3473    0.0000 </r>
       <r>   29.3915    0.0000 </r>
       <r>   29.8240    0.0000 </r>
       <r>   30.1464    0.0000 </r>
       <r>   31.9037    0.0000 </r>
       <r>   32.3963    0.0000 </r>
      </set>
      <set comment="kpoint 12">
       <r>  -56.2819    1.0000 </r>
       <r>  -56.2799    1.0000 </r>
       <r>  -31.2832    1.0000 </r>
       <r>  -31.2704    1.0000 </r>
       <r>  -31.1460    1.0000 </r>
       <r>  -31.1357    1.0000 </r>
       <r>  -31.1101    1.0000 </r>
       <r>  -31.1037    1.0000 </r>
       <r>  -14.6894    1.0000 </r>
       <r>  -14.5579    1.0000 </r>
       <r>  -13.7705    1.0000 </r>
       <r>  -13.7155    1.0000 </r>
       <r>   -1.6170    1.0000 </r>
       <r>   -1.4036    1.0000 </r>
       <r>   -0.5959    1.0000 </r>
       <r>   -0.5107    1.0000 </r>
       <r>    1.1845    1.0000 </r>
       <r>    1.5626    1.0000 </r>
       <r>    1.9076    1.0000 </r>
       <r>    1.9564    1.0000 </r>
       <r>    2.0566    1.0000 </r>
       <r>    2.4589    1.0000 </r>
       <r>    2.5018    1.0000 </r>
       <r>    2.8299    1.0000 </r>
       <r>    7.5653    0.0000 </r>
       <r>    7.8226    0.0000 </r>
       <r>    7.9916    0.0000 </r>
       <r>    8.1659    0.0000 </r>
       <r>    8.9863    0.0000 </r>
       <r>    9.1570    0.0000 </r>
       <r>   11.2491    0.0000 </r>
       <r>   11.4345    0.0000 </r>
       <r>   11.7649    0.0000 </r>
       <r>   11.7906    0.0000 </r>
       <r>   16.7090    0.0000 </r>
       <r>   17.3007    0.0000 </r>
       <r>   18.8874    0.0000 </r>
       <r>   19.6106    0.0000 </r>
       <r>   20.6686    0.0000 </r>
       <r>   20.7728    0.0000 </r>
       <r>   23.4001    0.0000 </r>
       <r>   23.4808    0.0000 </r>
       <r>   25.2342    0.0000 </r>
       <r>   25.5119    0.0000 </r>
       <r>   26.3393    0.0000 </r>
       <r>   27.0164    0.0000 </r>
       <r>   28.3532    0.0000 </r>
       <r>   29.0899    0.0000 </r>
       <r>   29.8760    0.0000 </r>
       <r>   30.0420    0.0000 </r>
       <r>   32.6505    0.0000 </r>
       <r>   32.7626    0.0000 </r>
      </set>
      <set comment="kpoint 13">
       <r>  -56.2690    1.0000 </r>
       <r>  -56.2572    1.0000 </r>
       <r>  -31.3541    1.0000 </r>
       <r>  -31.3308    1.0000 </r>
       <r>  -31.2133    1.0000 </r>
       <r>  -31.2133    1.0000 </r>
       <r>  -31.1071    1.0000 </r>
       <r>  -31.1071    1.0000 </r>
       <r>  -14.7513    1.0000 </r>
       <r>  -13.9175    1.0000 </r>
       <r>  -13.8300    1.0000 </r>
       <r>  -13.8300    1.0000 </r>
       <r>   -1.0661    1.0000 </r>
       <r>   -0.9168    1.0000 </r>
       <r>   -0.2974    1.0000 </r>
       <r>   -0.2974    1.0000 </r>
       <r>   -0.1734    1.0000 </r>
       <r>    0.2578    1.0000 </r>
       <r>    1.1732    1.0000 </r>
       <r>    2.2663    1.0000 </r>
       <r>    2.2663    1.0000 </r>
       <r>    2.3281    1.0000 </r>
       <r>    2.3281    1.0000 </r>
       <r>    3.4182    1.0000 </r>
       <r>    7.6023    0.0000 </r>
       <r>    7.9906    0.0000 </r>
       <r>    8.4163    0.0000 </r>
       <r>    8.6364    0.0000 </r>
       <r>    8.6364    0.0000 </r>
       <r>    9.4687    0.0000 </r>
       <r>   10.6202    0.0000 </r>
       <r>   11.4383    0.0000 </r>
       <r>   11.4383    0.0000 </r>
       <r>   11.9952    0.0000 </r>
       <r>   15.5288    0.0000 </r>
       <r>   19.6842    0.0000 </r>
       <r>   19.6842    0.0000 </r>
       <r>   20.1977    0.0000 </r>
       <r>   20.5282    0.0000 </r>
       <r>   22.5608    0.0000 </r>
       <r>   23.0587    0.0000 </r>
       <r>   24.0159    0.0000 </r>
       <r>   24.1042    0.0000 </r>
       <r>   24.1042    0.0000 </r>
       <r>   24.6663    0.0000 </r>
       <r>   28.0898    0.0000 </r>
       <r>   28.7158    0.0000 </r>
       <r>   28.7158    0.0000 </r>
       <r>   30.7150    0.0000 </r>
       <r>   30.9882    0.0000 </r>
       <r>   30.9882    0.0000 </r>
       <r>   32.1625    0.0000 </r>
      </set>
      <set comment="kpoint 14">
       <r>  -56.2679    1.0000 </r>
       <r>  -56.2581    1.0000 </r>
       <r>  -31.3585    1.0000 </r>
       <r>  -31.3386    1.0000 </r>
       <r>  -31.2020    1.0000 </r>
       <r>  -31.1982    1.0000 </r>
       <r>  -31.1161    1.0000 </r>
       <r>  -31.1134    1.0000 </r>
       <r>  -14.6689    1.0000 </r>
       <r>  -13.9808    1.0000 </r>
       <r>  -13.8527    1.0000 </r>
       <r>  -13.8392    1.0000 </r>
       <r>   -0.9850    1.0000 </r>
       <r>   -0.7280    1.0000 </r>
       <r>   -0.5620    1.0000 </r>
       <r>   -0.3604    1.0000 </r>
       <r>    0.2396    1.0000 </r>
       <r>    0.4815    1.0000 </r>
       <r>    0.6828    1.0000 </r>
       <r>    1.9887    1.0000 </r>
       <r>    2.0150    1.0000 </r>
       <r>    2.5005    1.0000 </r>
       <r>    2.5237    1.0000 </r>
       <r>    3.4652    1.0000 </r>
       <r>    7.4823    0.0000 </r>
       <r>    8.2107    0.0000 </r>
       <r>    8.4426    0.0000 </r>
       <r>    8.5024    0.0000 </r>
       <r>    8.8257    0.0000 </r>
       <r>    9.4038    0.0000 </r>
       <r>   10.6855    0.0000 </r>
       <r>   10.8879    0.0000 </r>
       <r>   11.4869    0.0000 </r>
       <r>   12.4066    0.0000 </r>
       <r>   15.8115    0.0000 </r>
       <r>   18.9506    0.0000 </r>
       <r>   19.8926    0.0000 </r>
       <r>   20.3815    0.0000 </r>
       <r>   21.0499    0.0000 </r>
       <r>   22.1990    0.0000 </r>
       <r>   22.5460    0.0000 </r>
       <r>   23.4759    0.0000 </r>
       <r>   23.8805    0.0000 </r>
       <r>   24.5898    0.0000 </r>
       <r>   25.3073    0.0000 </r>
       <r>   27.1462    0.0000 </r>
       <r>   27.8171    0.0000 </r>
       <r>   29.2708    0.0000 </r>
       <r>   30.8621    0.0000 </r>
       <r>   30.9750    0.0000 </r>
       <r>   31.9473    0.0000 </r>
       <r>   32.3118    0.0000 </r>
      </set>
      <set comment="kpoint 15">
       <r>  -56.2650    1.0000 </r>
       <r>  -56.2609    1.0000 </r>
       <r>  -31.3613    1.0000 </r>
       <r>  -31.3532    1.0000 </r>
       <r>  -31.1755    1.0000 </r>
       <r>  -31.1681    1.0000 </r>
       <r>  -31.1384    1.0000 </r>
       <r>  -31.1319    1.0000 </r>
       <r>  -14.4533    1.0000 </r>
       <r>  -14.1877    1.0000 </r>
       <r>  -13.8647    1.0000 </r>
       <r>  -13.8564    1.0000 </r>
       <r>   -0.7139    1.0000 </r>
       <r>   -0.5973    1.0000 </r>
       <r>   -0.5227    1.0000 </r>
       <r>   -0.3126    1.0000 </r>
       <r>    0.0595    1.0000 </r>
       <r>    0.3609    1.0000 </r>
       <r>    0.9917    1.0000 </r>
       <r>    1.4521    1.0000 </r>
       <r>    1.8231    1.0000 </r>
       <r>    2.3704    1.0000 </r>
       <r>    2.9450    1.0000 </r>
       <r>    3.3139    1.0000 </r>
       <r>    7.5929    0.0000 </r>
       <r>    8.0069    0.0000 </r>
       <r>    8.6096    0.0000 </r>
       <r>    8.6628    0.0000 </r>
       <r>    9.1069    0.0000 </r>
       <r>    9.2391    0.0000 </r>
       <r>   10.3952    0.0000 </r>
       <r>   10.4794    0.0000 </r>
       <r>   11.9519    0.0000 </r>
       <r>   12.4421    0.0000 </r>
       <r>   16.6502    0.0000 </r>
       <r>   17.8031    0.0000 </r>
       <r>   20.5699    0.0000 </r>
       <r>   20.7412    0.0000 </r>
       <r>   21.4472    0.0000 </r>
       <r>   21.4606    0.0000 </r>
       <r>   22.1852    0.0000 </r>
       <r>   22.4206    0.0000 </r>
       <r>   23.9759    0.0000 </r>
       <r>   24.9305    0.0000 </r>
       <r>   25.3909    0.0000 </r>
       <r>   25.9724    0.0000 </r>
       <r>   28.0141    0.0000 </r>
       <r>   29.5271    0.0000 </r>
       <r>   31.3705    0.0000 </r>
       <r>   31.6116    0.0000 </r>
       <r>   32.2377    0.0000 </r>
       <r>   32.4465    0.0000 </r>
      </set>
      <set comment="kpoint 16">
       <r>  -56.2669    1.0000 </r>
       <r>  -56.2590    1.0000 </r>
       <r>  -31.3592    1.0000 </r>
       <r>  -31.3405    1.0000 </r>
       <r>  -31.2170    1.0000 </r>
       <r>  -31.1690    1.0000 </r>
       <r>  -31.1373    1.0000 </r>
       <r>  -31.1047    1.0000 </r>
       <r>  -14.5951    1.0000 </r>
       <r>  -14.0227    1.0000 </r>
       <r>  -13.8696    1.0000 </r>
       <r>  -13.8585    1.0000 </r>
       <r>   -1.0540    1.0000 </r>
       <r>   -0.7401    1.0000 </r>
       <r>   -0.5278    1.0000 </r>
       <r>   -0.3540    1.0000 </r>
       <r>    0.1944    1.0000 </r>
       <r>    0.6708    1.0000 </r>
       <r>    0.7772    1.0000 </r>
       <r>    1.6253    1.0000 </r>
       <r>    2.2023    1.0000 </r>
       <r>    2.3041    1.0000 </r>
       <r>    2.7524    1.0000 </r>
       <r>    3.4722    1.0000 </r>
       <r>    7.4603    0.0000 </r>
       <r>    8.1499    0.0000 </r>
       <r>    8.4623    0.0000 </r>
       <r>    8.7104    0.0000 </r>
       <r>    8.7530    0.0000 </r>
       <r>    9.3551    0.0000 </r>
       <r>   10.3740    0.0000 </r>
       <r>   11.1836    0.0000 </r>
       <r>   11.4285    0.0000 </r>
       <r>   12.4375    0.0000 </r>
       <r>   16.0651    0.0000 </r>
       <r>   18.8089    0.0000 </r>
       <r>   19.4263    0.0000 </r>
       <r>   20.7031    0.0000 </r>
       <r>   21.1041    0.0000 </r>
       <r>   21.8580    0.0000 </r>
       <r>   22.3157    0.0000 </r>
       <r>   23.4903    0.0000 </r>
       <r>   24.1986    0.0000 </r>
       <r>   24.6395    0.0000 </r>
       <r>   25.1988    0.0000 </r>
       <r>   26.8299    0.0000 </r>
       <r>   27.4888    0.0000 </r>
       <r>   29.3498    0.0000 </r>
       <r>   30.7690    0.0000 </r>
       <r>   31.1404    0.0000 </r>
       <r>   32.1374    0.0000 </r>
       <r>   32.6714    0.0000 </r>
      </set>
      <set comment="kpoint 17">
       <r>  -56.2645    1.0000 </r>
       <r>  -56.2614    1.0000 </r>
       <r>  -31.3571    1.0000 </r>
       <r>  -31.3488    1.0000 </r>
       <r>  -31.2057    1.0000 </r>
       <r>  -31.1759    1.0000 </r>
       <r>  -31.1313    1.0000 </r>
       <r>  -31.1108    1.0000 </r>
       <r>  -14.4066    1.0000 </r>
       <r>  -14.1812    1.0000 </r>
       <r>  -13.8881    1.0000 </r>
       <r>  -13.8792    1.0000 </r>
       <r>   -0.9391    1.0000 </r>
       <r>   -0.7866    1.0000 </r>
       <r>   -0.6658    1.0000 </r>
       <r>   -0.4629    1.0000 </r>
       <r>    0.2081    1.0000 </r>
       <r>    0.6472    1.0000 </r>
       <r>    1.2520    1.0000 </r>
       <r>    1.6691    1.0000 </r>
       <r>    1.9931    1.0000 </r>
       <r>    2.2740    1.0000 </r>
       <r>    2.8945    1.0000 </r>
       <r>    3.2626    1.0000 </r>
       <r>    7.6725    0.0000 </r>
       <r>    8.0969    0.0000 </r>
       <r>    8.3912    0.0000 </r>
       <r>    8.6450    0.0000 </r>
       <r>    8.9259    0.0000 </r>
       <r>    9.1527    0.0000 </r>
       <r>   10.4302    0.0000 </r>
       <r>   10.9155    0.0000 </r>
       <r>   11.8176    0.0000 </r>
       <r>   12.2856    0.0000 </r>
       <r>   16.7815    0.0000 </r>
       <r>   17.7987    0.0000 </r>
       <r>   19.8838    0.0000 </r>
       <r>   20.6588    0.0000 </r>
       <r>   21.0128    0.0000 </r>
       <r>   21.2555    0.0000 </r>
       <r>   22.7225    0.0000 </r>
       <r>   23.2986    0.0000 </r>
       <r>   23.6357    0.0000 </r>
       <r>   24.5140    0.0000 </r>
       <r>   25.3200    0.0000 </r>
       <r>   26.2323    0.0000 </r>
       <r>   28.0641    0.0000 </r>
       <r>   29.8078    0.0000 </r>
       <r>   30.5324    0.0000 </r>
       <r>   31.5834    0.0000 </r>
       <r>   31.9720    0.0000 </r>
       <r>   32.5634    0.0000 </r>
      </set>
      <set comment="kpoint 18">
       <r>  -56.2631    1.0000 </r>
       <r>  -56.2621    1.0000 </r>
       <r>  -31.3477    1.0000 </r>
       <r>  -31.3428    1.0000 </r>
       <r>  -31.2230    1.0000 </r>
       <r>  -31.2088    1.0000 </r>
       <r>  -31.1084    1.0000 </r>
       <r>  -31.1008    1.0000 </r>
       <r>  -14.2946    1.0000 </r>
       <r>  -14.1982    1.0000 </r>
       <r>  -13.9307    1.0000 </r>
       <r>  -13.9176    1.0000 </r>
       <r>   -1.0711    1.0000 </r>
       <r>   -0.9526    1.0000 </r>
       <r>   -0.9406    1.0000 </r>
       <r>   -0.8250    1.0000 </r>
       <r>    0.6337    1.0000 </r>
       <r>    0.8533    1.0000 </r>
       <r>    1.7153    1.0000 </r>
       <r>    1.8732    1.0000 </r>
       <r>    2.2062    1.0000 </r>
       <r>    2.3272    1.0000 </r>
       <r>    2.7623    1.0000 </r>
       <r>    3.0502    1.0000 </r>
       <r>    7.9853    0.0000 </r>
       <r>    8.1718    0.0000 </r>
       <r>    8.3607    0.0000 </r>
       <r>    8.4202    0.0000 </r>
       <r>    8.5727    0.0000 </r>
       <r>    8.8599    0.0000 </r>
       <r>   10.9154    0.0000 </r>
       <r>   11.4118    0.0000 </r>
       <r>   11.4943    0.0000 </r>
       <r>   11.9149    0.0000 </r>
       <r>   17.1275    0.0000 </r>
       <r>   17.5749    0.0000 </r>
       <r>   19.5906    0.0000 </r>
       <r>   19.9948    0.0000 </r>
       <r>   20.9807    0.0000 </r>
       <r>   21.0824    0.0000 </r>
       <r>   23.1223    0.0000 </r>
       <r>   23.2669    0.0000 </r>
       <r>   23.6994    0.0000 </r>
       <r>   23.9351    0.0000 </r>
       <r>   25.6022    0.0000 </r>
       <r>   26.0685    0.0000 </r>
       <r>   28.9879    0.0000 </r>
       <r>   30.1818    0.0000 </r>
       <r>   30.2366    0.0000 </r>
       <r>   30.5012    0.0000 </r>
       <r>   32.2837    0.0000 </r>
       <r>   32.5586    0.0000 </r>
      </set>
      <set comment="kpoint 19">
       <r>  -56.2509    1.0000 </r>
       <r>  -56.2472    1.0000 </r>
       <r>  -31.5060    1.0000 </r>
       <r>  -31.4982    1.0000 </r>
       <r>  -31.1558    1.0000 </r>
       <r>  -31.1558    1.0000 </r>
       <r>  -31.1137    1.0000 </r>
       <r>  -31.1137    1.0000 </r>
       <r>  -14.1692    1.0000 </r>
       <r>  -14.0152    1.0000 </r>
       <r>  -14.0152    1.0000 </r>
       <r>  -13.8581    1.0000 </r>
       <r>   -0.7436    1.0000 </r>
       <r>   -0.7116    1.0000 </r>
       <r>    0.0086    1.0000 </r>
       <r>    0.0289    1.0000 </r>
       <r>    0.0289    1.0000 </r>
       <r>    0.3524    1.0000 </r>
       <r>    0.9602    1.0000 </r>
       <r>    1.3358    1.0000 </r>
       <r>    1.3358    1.0000 </r>
       <r>    2.2792    1.0000 </r>
       <r>    2.5252    1.0000 </r>
       <r>    2.5252    1.0000 </r>
       <r>    8.0210    0.0000 </r>
       <r>    8.4344    0.0000 </r>
       <r>    8.7395    0.0000 </r>
       <r>    8.8035    0.0000 </r>
       <r>    9.0503    0.0000 </r>
       <r>    9.0503    0.0000 </r>
       <r>   10.8672    0.0000 </r>
       <r>   11.0823    0.0000 </r>
       <r>   11.4205    0.0000 </r>
       <r>   11.4205    0.0000 </r>
       <r>   17.2908    0.0000 </r>
       <r>   18.8851    0.0000 </r>
       <r>   20.9039    0.0000 </r>
       <r>   21.0492    0.0000 </r>
       <r>   21.0492    0.0000 </r>
       <r>   21.5547    0.0000 </r>
       <r>   23.2201    0.0000 </r>
       <r>   23.2201    0.0000 </r>
       <r>   23.5583    0.0000 </r>
       <r>   23.6954    0.0000 </r>
       <r>   24.3825    0.0000 </r>
       <r>   25.7720    0.0000 </r>
       <r>   28.5128    0.0000 </r>
       <r>   28.5128    0.0000 </r>
       <r>   30.7377    0.0000 </r>
       <r>   30.7377    0.0000 </r>
       <r>   32.6260    0.0000 </r>
       <r>   33.2064    0.0000 </r>
      </set>
      <set comment="kpoint 20">
       <r>  -56.2504    1.0000 </r>
       <r>  -56.2470    1.0000 </r>
       <r>  -31.5097    1.0000 </r>
       <r>  -31.5033    1.0000 </r>
       <r>  -31.1505    1.0000 </r>
       <r>  -31.1484    1.0000 </r>
       <r>  -31.1166    1.0000 </r>
       <r>  -31.1147    1.0000 </r>
       <r>  -14.2896    1.0000 </r>
       <r>  -14.1726    1.0000 </r>
       <r>  -13.8561    1.0000 </r>
       <r>  -13.7208    1.0000 </r>
       <r>   -0.8837    1.0000 </r>
       <r>   -0.7835    1.0000 </r>
       <r>   -0.4973    1.0000 </r>
       <r>   -0.2057    1.0000 </r>
       <r>    0.3230    1.0000 </r>
       <r>    0.5966    1.0000 </r>
       <r>    1.1597    1.0000 </r>
       <r>    1.5414    1.0000 </r>
       <r>    1.5803    1.0000 </r>
       <r>    2.3494    1.0000 </r>
       <r>    2.4385    1.0000 </r>
       <r>    2.6192    1.0000 </r>
       <r>    7.6935    0.0000 </r>
       <r>    8.2238    0.0000 </r>
       <r>    8.5196    0.0000 </r>
       <r>    8.7945    0.0000 </r>
       <r>    9.1942    0.0000 </r>
       <r>    9.2499    0.0000 </r>
       <r>   10.5506    0.0000 </r>
       <r>   10.6590    0.0000 </r>
       <r>   11.8340    0.0000 </r>
       <r>   12.1021    0.0000 </r>
       <r>   17.2964    0.0000 </r>
       <r>   18.6789    0.0000 </r>
       <r>   20.2585    0.0000 </r>
       <r>   21.0244    0.0000 </r>
       <r>   21.3326    0.0000 </r>
       <r>   21.6949    0.0000 </r>
       <r>   22.8091    0.0000 </r>
       <r>   22.9282    0.0000 </r>
       <r>   23.7115    0.0000 </r>
       <r>   23.8049    0.0000 </r>
       <r>   24.7289    0.0000 </r>
       <r>   25.5028    0.0000 </r>
       <r>   28.2190    0.0000 </r>
       <r>   28.5598    0.0000 </r>
       <r>   31.0592    0.0000 </r>
       <r>   31.1923    0.0000 </r>
       <r>   32.6018    0.0000 </r>
       <r>   32.9170    0.0000 </r>
      </set>
      <set comment="kpoint 21">
       <r>  -56.2492    1.0000 </r>
       <r>  -56.2478    1.0000 </r>
       <r>  -31.5147    1.0000 </r>
       <r>  -31.5121    1.0000 </r>
       <r>  -31.1389    1.0000 </r>
       <r>  -31.1345    1.0000 </r>
       <r>  -31.1237    1.0000 </r>
       <r>  -31.1194    1.0000 </r>
       <r>  -14.3689    1.0000 </r>
       <r>  -14.3265    1.0000 </r>
       <r>  -13.6852    1.0000 </r>
       <r>  -13.6314    1.0000 </r>
       <r>   -1.2045    1.0000 </r>
       <r>   -1.1243    1.0000 </r>
       <r>   -0.3901    1.0000 </r>
       <r>   -0.2263    1.0000 </r>
       <r>    0.3744    1.0000 </r>
       <r>    0.7782    1.0000 </r>
       <r>    1.1115    1.0000 </r>
       <r>    1.5728    1.0000 </r>
       <r>    2.0704    1.0000 </r>
       <r>    2.1028    1.0000 </r>
       <r>    2.7118    1.0000 </r>
       <r>    3.0638    1.0000 </r>
       <r>    7.2728    0.0000 </r>
       <r>    7.5165    0.0000 </r>
       <r>    8.6681    0.0000 </r>
       <r>    8.7649    0.0000 </r>
       <r>    9.3347    0.0000 </r>
       <r>    9.3453    0.0000 </r>
       <r>   10.2715    0.0000 </r>
       <r>   10.3791    0.0000 </r>
       <r>   12.4540    0.0000 </r>
       <r>   12.6197    0.0000 </r>
       <r>   17.5316    0.0000 </r>
       <r>   18.1265    0.0000 </r>
       <r>   19.9218    0.0000 </r>
       <r>   20.2971    0.0000 </r>
       <r>   21.7043    0.0000 </r>
       <r>   21.8907    0.0000 </r>
       <r>   22.4341    0.0000 </r>
       <r>   22.7746    0.0000 </r>
       <r>   23.7449    0.0000 </r>
       <r>   24.1963    0.0000 </r>
       <r>   24.5595    0.0000 </r>
       <r>   24.7795    0.0000 </r>
       <r>   28.5535    0.0000 </r>
       <r>   29.0209    0.0000 </r>
       <r>   31.6982    0.0000 </r>
       <r>   31.8183    0.0000 </r>
       <r>   32.8388    0.0000 </r>
       <r>   32.8919    0.0000 </r>
      </set>
      <set comment="kpoint 22">
       <r>  -56.2500    1.0000 </r>
       <r>  -56.2472    1.0000 </r>
       <r>  -31.5128    1.0000 </r>
       <r>  -31.5026    1.0000 </r>
       <r>  -31.1575    1.0000 </r>
       <r>  -31.1354    1.0000 </r>
       <r>  -31.1224    1.0000 </r>
       <r>  -31.1133    1.0000 </r>
       <r>  -14.3622    1.0000 </r>
       <r>  -14.0491    1.0000 </r>
       <r>  -13.9757    1.0000 </r>
       <r>  -13.6416    1.0000 </r>
       <r>   -1.1080    1.0000 </r>
       <r>   -0.5198    1.0000 </r>
       <r>   -0.5111    1.0000 </r>
       <r>   -0.4590    1.0000 </r>
       <r>   -0.1460    1.0000 </r>
       <r>    1.0841    1.0000 </r>
       <r>    1.2472    1.0000 </r>
       <r>    1.4749    1.0000 </r>
       <r>    1.7081    1.0000 </r>
       <r>    2.3397    1.0000 </r>
       <r>    2.5603    1.0000 </r>
       <r>    2.8600    1.0000 </r>
       <r>    7.4910    0.0000 </r>
       <r>    8.3409    0.0000 </r>
       <r>    8.5457    0.0000 </r>
       <r>    8.6804    0.0000 </r>
       <r>    8.8427    0.0000 </r>
       <r>    9.4876    0.0000 </r>
       <r>   10.2093    0.0000 </r>
       <r>   11.2549    0.0000 </r>
       <r>   11.4144    0.0000 </r>
       <r>   12.4489    0.0000 </r>
       <r>   17.2400    0.0000 </r>
       <r>   18.6893    0.0000 </r>
       <r>   19.3754    0.0000 </r>
       <r>   20.8312    0.0000 </r>
       <r>   21.6018    0.0000 </r>
       <r>   21.9063    0.0000 </r>
       <r>   22.3823    0.0000 </r>
       <r>   23.2878    0.0000 </r>
       <r>   23.6218    0.0000 </r>
       <r>   24.0122    0.0000 </r>
       <r>   24.3891    0.0000 </r>
       <r>   26.2643    0.0000 </r>
       <r>   27.2965    0.0000 </r>
       <r>   29.0175    0.0000 </r>
       <r>   30.9935    0.0000 </r>
       <r>   31.2420    0.0000 </r>
       <r>   31.8070    0.0000 </r>
       <r>   33.8364    0.0000 </r>
      </set>
      <set comment="kpoint 23">
       <r>  -56.2492    1.0000 </r>
       <r>  -56.2479    1.0000 </r>
       <r>  -31.5126    1.0000 </r>
       <r>  -31.5069    1.0000 </r>
       <r>  -31.1521    1.0000 </r>
       <r>  -31.1384    1.0000 </r>
       <r>  -31.1205    1.0000 </r>
       <r>  -31.1146    1.0000 </r>
       <r>  -14.3532    1.0000 </r>
       <r>  -14.2248    1.0000 </r>
       <r>  -13.7872    1.0000 </r>
       <r>  -13.6473    1.0000 </r>
       <r>   -1.2426    1.0000 </r>
       <r>   -1.0413    1.0000 </r>
       <r>   -0.4620    1.0000 </r>
       <r>   -0.3338    1.0000 </r>
       <r>    0.0695    1.0000 </r>
       <r>    0.7446    1.0000 </r>
       <r>    1.2754    1.0000 </r>
       <r>    1.3788    1.0000 </r>
       <r>    2.1674    1.0000 </r>
       <r>    2.4421    1.0000 </r>
       <r>    2.8777    1.0000 </r>
       <r>    3.1829    1.0000 </r>
       <r>    7.3481    0.0000 </r>
       <r>    7.7422    0.0000 </r>
       <r>    8.6580    0.0000 </r>
       <r>    8.7345    0.0000 </r>
       <r>    8.9902    0.0000 </r>
       <r>    9.3408    0.0000 </r>
       <r>   10.2993    0.0000 </r>
       <r>   10.7454    0.0000 </r>
       <r>   12.0922    0.0000 </r>
       <r>   12.5391    0.0000 </r>
       <r>   17.3612    0.0000 </r>
       <r>   18.0427    0.0000 </r>
       <r>   19.2275    0.0000 </r>
       <r>   20.1155    0.0000 </r>
       <r>   21.4739    0.0000 </r>
       <r>   21.9325    0.0000 </r>
       <r>   22.9152    0.0000 </r>
       <r>   23.1189    0.0000 </r>
       <r>   23.3102    0.0000 </r>
       <r>   23.9122    0.0000 </r>
       <r>   24.8319    0.0000 </r>
       <r>   25.7332    0.0000 </r>
       <r>   28.0888    0.0000 </r>
       <r>   29.4264    0.0000 </r>
       <r>   31.1000    0.0000 </r>
       <r>   31.4380    0.0000 </r>
       <r>   31.6678    0.0000 </r>
       <r>   33.1295    0.0000 </r>
      </set>
      <set comment="kpoint 24">
       <r>  -56.2485    1.0000 </r>
       <r>  -56.2482    1.0000 </r>
       <r>  -31.5055    1.0000 </r>
       <r>  -31.5020    1.0000 </r>
       <r>  -31.1603    1.0000 </r>
       <r>  -31.1536    1.0000 </r>
       <r>  -31.1141    1.0000 </r>
       <r>  -31.1124    1.0000 </r>
       <r>  -14.2370    1.0000 </r>
       <r>  -14.1038    1.0000 </r>
       <r>  -13.9053    1.0000 </r>
       <r>  -13.7659    1.0000 </r>
       <r>   -1.1768    1.0000 </r>
       <r>   -0.9325    1.0000 </r>
       <r>   -0.7794    1.0000 </r>
       <r>   -0.6178    1.0000 </r>
       <r>    0.1760    1.0000 </r>
       <r>    0.4729    1.0000 </r>
       <r>    1.2567    1.0000 </r>
       <r>    1.2986    1.0000 </r>
       <r>    2.5455    1.0000 </r>
       <r>    2.6703    1.0000 </r>
       <r>    3.1819    1.0000 </r>
       <r>    3.3324    1.0000 </r>
       <r>    7.6645    0.0000 </r>
       <r>    8.0784    0.0000 </r>
       <r>    8.5452    0.0000 </r>
       <r>    8.6698    0.0000 </r>
       <r>    8.7037    0.0000 </r>
       <r>    8.9791    0.0000 </r>
       <r>   10.7200    0.0000 </r>
       <r>   11.3986    0.0000 </r>
       <r>   11.4137    0.0000 </r>
       <r>   12.0890    0.0000 </r>
       <r>   17.1627    0.0000 </r>
       <r>   17.4703    0.0000 </r>
       <r>   19.3018    0.0000 </r>
       <r>   20.0301    0.0000 </r>
       <r>   20.6431    0.0000 </r>
       <r>   21.2770    0.0000 </r>
       <r>   22.9943    0.0000 </r>
       <r>   23.1299    0.0000 </r>
       <r>   24.0620    0.0000 </r>
       <r>   24.4480    0.0000 </r>
       <r>   25.1107    0.0000 </r>
       <r>   25.6592    0.0000 </r>
       <r>   28.7508    0.0000 </r>
       <r>   29.7736    0.0000 </r>
       <r>   30.7910    0.0000 </r>
       <r>   30.9055    0.0000 </r>
       <r>   31.3853    0.0000 </r>
       <r>   32.3494    0.0000 </r>
      </set>
     </set>
    </set>
   </array>
  </eigenvalues>
  <separator name="orbital magnetization" >
   <v name="MAGDIPOLOUT">      0.00000000      0.00000000      0.00000000</v>
  </separator>
  <dos>
   <i name="efermi">      4.38502655 </i>
   <total>
    <array>
     <dimension dim="1">gridpoints</dimension>
     <dimension dim="2">spin</dimension>
     <field>energy</field>
     <field>total</field>
     <field>integrated</field>
     <set>
      <set comment="spin 1">
       <r>   -60.8046     0.0000     0.0000 </r>
       <r>   -60.4741     0.0000     0.0000 </r>
       <r>   -60.1436     0.0000     0.0000 </r>
       <r>   -59.8131     0.0000     0.0000 </r>
       <r>   -59.4826     0.0000     0.0000 </r>
       <r>   -59.1522     0.0000     0.0000 </r>
       <r>   -58.8217     0.0000     0.0000 </r>
       <r>   -58.4912     0.0000     0.0000 </r>
       <r>   -58.1607     0.0000     0.0000 </r>
       <r>   -57.8302     0.0000     0.0000 </r>
       <r>   -57.4997     0.0000     0.0000 </r>
       <r>   -57.1692     0.0000     0.0000 </r>
       <r>   -56.8387     0.0000     0.0000 </r>
       <r>   -56.5082     0.0000     0.0000 </r>
       <r>   -56.1777     3.5272     4.0000 </r>
       <r>   -55.8472     0.0000     4.0000 </r>
       <r>   -55.5167     0.0000     4.0000 </r>
       <r>   -55.1862     0.0000     4.0000 </r>
       <r>   -54.8558     0.0000     4.0000 </r>
       <r>   -54.5253     0.0000     4.0000 </r>
       <r>   -54.1948     0.0000     4.0000 </r>
       <r>   -53.8643     0.0000     4.0000 </r>
       <r>   -53.5338     0.0000     4.0000 </r>
       <r>   -53.2033     0.0000     4.0000 </r>
       <r>   -52.8728     0.0000     4.0000 </r>
       <r>   -52.5423     0.0000     4.0000 </r>
       <r>   -52.2118     0.0000     4.0000 </r>
       <r>   -51.8813     0.0000     4.0000 </r>
       <r>   -51.5508     0.0000     4.0000 </r>
       <r>   -51.2203     0.0000     4.0000 </r>
       <r>   -50.8898     0.0000     4.0000 </r>
       <r>   -50.5593     0.0000     4.0000 </r>
       <r>   -50.2289     0.0000     4.0000 </r>
       <r>   -49.8984     0.0000     4.0000 </r>
       <r>   -49.5679     0.0000     4.0000 </r>
       <r>   -49.2374     0.0000     4.0000 </r>
       <r>   -48.9069     0.0000     4.0000 </r>
       <r>   -48.5764     0.0000     4.0000 </r>
       <r>   -48.2459     0.0000     4.0000 </r>
       <r>   -47.9154     0.0000     4.0000 </r>
       <r>   -47.5849     0.0000     4.0000 </r>
       <r>   -47.2544     0.0000     4.0000 </r>
       <r>   -46.9239     0.0000     4.0000 </r>
       <r>   -46.5934     0.0000     4.0000 </r>
       <r>   -46.2629     0.0000     4.0000 </r>
       <r>   -45.9325     0.0000     4.0000 </r>
       <r>   -45.6020     0.0000     4.0000 </r>
       <r>   -45.2715     0.0000     4.0000 </r>
       <r>   -44.9410     0.0000     4.0000 </r>
       <r>   -44.6105     0.0000     4.0000 </r>
       <r>   -44.2800     0.0000     4.0000 </r>
       <r>   -43.9495     0.0000     4.0000 </r>
       <r>   -43.6190     0.0000     4.0000 </r>
       <r>   -43.2885     0.0000     4.0000 </r>
       <r>   -42.9580     0.0000     4.0000 </r>
       <r>   -42.6275     0.0000     4.0000 </r>
       <r>   -42.2970     0.0000     4.0000 </r>
       <r>   -41.9665     0.0000     4.0000 </r>
       <r>   -41.6361     0.0000     4.0000 </r>
       <r>   -41.3056     0.0000     4.0000 </r>
       <r>   -40.9751     0.0000     4.0000 </r>
       <r>   -40.6446     0.0000     4.0000 </r>
       <r>   -40.3141     0.0000     4.0000 </r>
       <r>   -39.9836     0.0000     4.0000 </r>
[...]
        <r>  0.0000  0.0052  0.0110  0.0052  0.0000  0.0000  0.0000  0.0000  0.0000 </r>
        <r>  0.0022  0.1389  0.0134  0.1389  0.0000  0.0000  0.0000  0.0000  0.0000 </r>
        <r>  0.0000  0.0025  0.0219  0.0025  0.0065  0.0506  0.0023  0.0506  0.0000 </r>
        <r>  0.0042  0.0218  0.0000  0.0218  0.0043  0.0030  0.0000  0.0030  0.0000 </r>
       </set>
       <set comment="band 21">
        <r>  0.0000  0.0039  0.0000  0.0039  0.0000  0.0000  0.0000  0.0000  0.0000 </r>
        <r>  0.0003  0.1495  0.0130  0.1495  0.0000  0.0000  0.0000  0.0000  0.0000 </r>
        <r>  0.0003  0.1495  0.0130  0.1495  0.0000  0.0000  0.0000  0.0000  0.0000 </r>
        <r>  0.0000  0.0039  0.0000  0.0039  0.0000  0.0000  0.0000  0.0000  0.0000 </r>
        <r>  0.0000  0.0001  0.0000  0.0001  0.0000  0.0000  0.0000  0.0000  0.0763 </r>
        <r>  0.0000  0.0012  0.0000  0.0012  0.0000  0.0002  0.0000  0.0002  0.0120 </r>
       </set>
       <set comment="band 22">
        <r>  0.0000  0.1519  0.0000  0.1519  0.0000  0.0000  0.0000  0.0000  0.0000 </r>
        <r>  0.0000  0.0006  0.0229  0.0006  0.0000  0.0000  0.0000  0.0000  0.0000 </r>
        <r>  0.0000  0.0006  0.0229  0.0006  0.0000  0.0000  0.0000  0.0000  0.0000 </r>
        <r>  0.0000  0.1519  0.0000  0.1519  0.0000  0.0000  0.0000  0.0000  0.0000 </r>
        <r>  0.0000  0.0002  0.0000  0.0002  0.0000  0.0037  0.0000  0.0037  0.0110 </r>
        <r>  0.0000  0.0044  0.0000  0.0044  0.0000  0.0002  0.0000  0.0002  0.0633 </r>
       </set>
       <set comment="band 23">
        <r>  0.0005  0.0019  0.1905  0.0019  0.0000  0.0000  0.0000  0.0000  0.0000 </r>
        <r>  0.0001  0.0836  0.0001  0.0836  0.0000  0.0000  0.0000  0.0000  0.0000 </r>
        <r>  0.0001  0.0836  0.0001  0.0836  0.0000  0.0000  0.0000  0.0000  0.0000 </r>
        <r>  0.0005  0.0019  0.1905  0.0019  0.0000  0.0000  0.0000  0.0000  0.0000 </r>
        <r>  0.0044  0.0156  0.0002  0.0156  0.0024  0.0018  0.0000  0.0018  0.0000 </r>
        <r>  0.0002  0.0007  0.0000  0.0007  0.0013  0.0135  0.0001  0.0135  0.0000 </r>
       </set>
       <set comment="band 24">
        <r>  0.0000  0.0928  0.0000  0.0928  0.0000  0.0000  0.0000  0.0000  0.0000 </r>
        <r>  0.0002  0.0136  0.1595  0.0136  0.0000  0.0000  0.0000  0.0000  0.0000 </r>
        <r>  0.0002  0.0136  0.1595  0.0136  0.0000  0.0000  0.0000  0.0000  0.0000 </r>
        <r>  0.0000  0.0928  0.0000  0.0928  0.0000  0.0000  0.0000  0.0000  0.0000 </r>
        <r>  0.0000  0.0010  0.0000  0.0010  0.0000  0.0049  0.0000  0.0049  0.0009 </r>
        <r>  0.0000  0.0127  0.0000  0.0127  0.0000  0.0009  0.0000  0.0009  0.0001 </r>
       </set>
       <set comment="band 25">
        <r>  0.0000  0.0083  0.0000  0.0083  0.0000  0.0000  0.0000  0.0000  0.0000 </r>
        <r>  0.0000  0.0009  0.0060  0.0009  0.0000  0.0000  0.0000  0.0000  0.0000 </r>
        <r>  0.0000  0.0009  0.0060  0.0009  0.0000  0.0000  0.0000  0.0000  0.0000 </r>
        <r>  0.0000  0.0083  0.0000  0.0083  0.0000  0.0000  0.0000  0.0000  0.0000 </r>
        <r>  0.0000  0.0000  0.0000  0.0000  0.0000  0.1060  0.0000  0.1060  0.0198 </r>
        <r>  0.0000  0.0022  0.0000  0.0022  0.0000  0.0009  0.0000  0.0009  0.5764 </r>
       </set>
       <set comment="band 26">
        <r>  0.0000  0.0015  0.0000  0.0015  0.0000  0.0000  0.0000  0.0000  0.0000 </r>
        <r>  0.0000  0.0208  0.0002  0.0208  0.0000  0.0000  0.0000  0.0000  0.0000 </r>
        <r>  0.0000  0.0208  0.0002  0.0208  0.0000  0.0000  0.0000  0.0000  0.0000 </r>
        <r>  0.0000  0.0015  0.0000  0.0015  0.0000  0.0000  0.0000  0.0000  0.0000 </r>
        <r>  0.0000  0.0000  0.0000  0.0000  0.0000  0.0015  0.0000  0.0015  0.7718 </r>
        <r>  0.0000  0.0000  0.0000  0.0000  0.0000  0.0001  0.0000  0.0001  0.0151 </r>
       </set>
       <set comment="band 27">
        <r>  0.0001  0.0003  0.0033  0.0003  0.0000  0.0000  0.0000  0.0000  0.0000 </r>
        <r>  0.0001  0.0266  0.0011  0.0266  0.0000  0.0000  0.0000  0.0000  0.0000 </r>
        <r>  0.0001  0.0266  0.0011  0.0266  0.0000  0.0000  0.0000  0.0000  0.0000 </r>
        <r>  0.0001  0.0003  0.0033  0.0003  0.0000  0.0000  0.0000  0.0000  0.0000 </r>
        <r>  0.0008  0.0039  0.0001  0.0039  0.0301  0.0006  0.0005  0.0006  0.0000 </r>
        <r>  0.0004  0.0000  0.0000  0.0000  0.0100  0.3292  0.0594  0.3292  0.0000 </r>
       </set>
       <set comment="band 28">
        <r>  0.0000  0.0015  0.0012  0.0015  0.0000  0.0000  0.0000  0.0000  0.0000 </r>
        <r>  0.0006  0.0010  0.0108  0.0010  0.0000  0.0000  0.0000  0.0000  0.0000 </r>
        <r>  0.0006  0.0010  0.0108  0.0010  0.0000  0.0000  0.0000  0.0000  0.0000 </r>
        <r>  0.0000  0.0015  0.0012  0.0015  0.0000  0.0000  0.0000  0.0000  0.0000 </r>
        <r>  0.0001  0.0002  0.0006  0.0002  0.0102  0.0001  0.2656  0.0001  0.0000 </r>
        <r>  0.0038  0.0001  0.0000  0.0001  0.1070  0.0171  0.4862  0.0171  0.0000 </r>
       </set>
       <set comment="band 29">
        <r>  0.0008  0.0002  0.0131  0.0002  0.0000  0.0000  0.0000  0.0000  0.0000 </r>
        <r>  0.0000  0.0033  0.0014  0.0033  0.0000  0.0000  0.0000  0.0000  0.0000 </r>
        <r>  0.0000  0.0033  0.0014  0.0033  0.0000  0.0000  0.0000  0.0000  0.0000 </r>
        <r>  0.0008  0.0002  0.0131  0.0002  0.0000  0.0000  0.0000  0.0000  0.0000 </r>
        <r>  0.0055  0.0002  0.0001  0.0002  0.1034  0.0024  0.5131  0.0024  0.0000 </r>
        <r>  0.0000  0.0001  0.0007  0.0001  0.0045  0.0161  0.2343  0.0161  0.0000 </r>
       </set>
       <set comment="band 30">
        <r>  0.0000  0.0359  0.0000  0.0359  0.0000  0.0000  0.0000  0.0000  0.0000 </r>
        <r>  0.0000  0.0005  0.0042  0.0005  0.0000  0.0000  0.0000  0.0000  0.0000 </r>
        <r>  0.0000  0.0005  0.0042  0.0005  0.0000  0.0000  0.0000  0.0000  0.0000 </r>
        <r>  0.0000  0.0359  0.0000  0.0359  0.0000  0.0000  0.0000  0.0000  0.0000 </r>
        <r>  0.0000  0.0000  0.0000  0.0000  0.0000  0.2641  0.0000  0.2641  0.0001 </r>
        <r>  0.0000  0.0034  0.0000  0.0034  0.0000  0.0012  0.0000  0.0012  0.2109 </r>
       </set>
       <set comment="band 31">
        <r>  0.0253  0.0135  0.0031  0.0135  0.0000  0.0000  0.0000  0.0000  0.0000 </r>
        <r>  0.0000  0.0001  0.0169  0.0001  0.0000  0.0000  0.0000  0.0000  0.0000 </r>
        <r>  0.0000  0.0001  0.0169  0.0001  0.0000  0.0000  0.0000  0.0000  0.0000 </r>
        <r>  0.0253  0.0135  0.0031  0.0135  0.0000  0.0000  0.0000  0.0000  0.0000 </r>
        <r>  0.0000  0.0002  0.0041  0.0002  0.0022  0.2191  0.0093  0.2191  0.0000 </r>
        <r>  0.0041  0.0020  0.0000  0.0020  0.3019  0.0016  0.0394  0.0016  0.0000 </r>
       </set>
       <set comment="band 32">
        <r>  0.0000  0.0003  0.0000  0.0003  0.0000  0.0000  0.0000  0.0000  0.0000 </r>
        <r>  0.0238  0.0334  0.0041  0.0334  0.0000  0.0000  0.0000  0.0000  0.0000 </r>
        <r>  0.0238  0.0334  0.0041  0.0334  0.0000  0.0000  0.0000  0.0000  0.0000 </r>
        <r>  0.0000  0.0003  0.0000  0.0003  0.0000  0.0000  0.0000  0.0000  0.0000 </r>
        <r>  0.0000  0.0062  0.0000  0.0062  0.0000  0.0030  0.0000  0.0030  0.0000 </r>
        <r>  0.0000  0.0003  0.0000  0.0003  0.0000  0.3712  0.0000  0.3712  0.0000 </r>
       </set>
       <set comment="band 33">
        <r>  0.0002  0.0003  0.0408  0.0003  0.0000  0.0000  0.0000  0.0000  0.0000 </r>
        <r>  0.0104  0.0236  0.0013  0.0236  0.0000  0.0000  0.0000  0.0000  0.0000 </r>
        <r>  0.0104  0.0236  0.0013  0.0236  0.0000  0.0000  0.0000  0.0000  0.0000 </r>
        <r>  0.0002  0.0003  0.0408  0.0003  0.0000  0.0000  0.0000  0.0000  0.0000 </r>
        <r>  0.0032  0.0000  0.0000  0.0000  0.5864  0.0003  0.1023  0.0003  0.0000 </r>
        <r>  0.0005  0.0000  0.0135  0.0000  0.0082  0.0062  0.0118  0.0062  0.0000 </r>
       </set>
       <set comment="band 34">
        <r>  0.0076  0.0446  0.0016  0.0446  0.0000  0.0000  0.0000  0.0000  0.0000 </r>
        <r>  0.0002  0.0007  0.0223  0.0007  0.0000  0.0000  0.0000  0.0000  0.0000 </r>
        <r>  0.0002  0.0007  0.0223  0.0007  0.0000  0.0000  0.0000  0.0000  0.0000 </r>
        <r>  0.0076  0.0446  0.0016  0.0446  0.0000  0.0000  0.0000  0.0000  0.0000 </r>
        <r>  0.0004  0.0000  0.0031  0.0000  0.0047  0.1570  0.0015  0.1570  0.0000 </r>
        <r>  0.0000  0.0022  0.0000  0.0022  0.3092  0.0003  0.0625  0.0003  0.0000 </r>
       </set>
       <set comment="band 35">
        <r>  0.0273  0.0044  0.0018  0.0044  0.0000  0.0000  0.0000  0.0000  0.0000 </r>
        <r>  0.0009  0.0043  0.0063  0.0043  0.0000  0.0000  0.0000  0.0000  0.0000 </r>
        <r>  0.0009  0.0043  0.0063  0.0043  0.0000  0.0000  0.0000  0.0000  0.0000 </r>
        <r>  0.0273  0.0044  0.0018  0.0044  0.0000  0.0000  0.0000  0.0000  0.0000 </r>
        <r>  0.0018  0.0002  0.0056  0.0002  0.0002  0.0047  0.0000  0.0047  0.0000 </r>
        <r>  0.0008  0.0189  0.0012  0.0189  0.0014  0.0006  0.0022  0.0006  0.0000 </r>
       </set>
       <set comment="band 36">
        <r>  0.0000  0.0043  0.0000  0.0043  0.0000  0.0000  0.0000  0.0000  0.0000 </r>
        <r>  0.0234  0.0093  0.0011  0.0093  0.0000  0.0000  0.0000  0.0000  0.0000 </r>
        <r>  0.0234  0.0093  0.0011  0.0093  0.0000  0.0000  0.0000  0.0000  0.0000 </r>
        <r>  0.0000  0.0043  0.0000  0.0043  0.0000  0.0000  0.0000  0.0000  0.0000 </r>
        <r>  0.0000  0.0182  0.0000  0.0182  0.0000  0.0005  0.0000  0.0005  0.0055 </r>
        <r>  0.0000  0.0004  0.0000  0.0004  0.0000  0.0050  0.0000  0.0050  0.0000 </r>
       </set>
       <set comment="band 37">
        <r>  0.0012  0.0007  0.0497  0.0007  0.0000  0.0000  0.0000  0.0000  0.0000 </r>
        <r>  0.0276  0.0168  0.0001  0.0168  0.0000  0.0000  0.0000  0.0000  0.0000 </r>
        <r>  0.0276  0.0168  0.0001  0.0168  0.0000  0.0000  0.0000  0.0000  0.0000 </r>
        <r>  0.0012  0.0007  0.0497  0.0007  0.0000  0.0000  0.0000  0.0000  0.0000 </r>
        <r>  0.0564  0.0024  0.0050  0.0024  0.0083  0.0010  0.0000  0.0010  0.0000 </r>
        <r>  0.0096  0.0018  0.0685  0.0018  0.0007  0.0000  0.0011  0.0000  0.0000 </r>
       </set>
       <set comment="band 38">
        <r>  0.0333  0.0179  0.0022  0.0179  0.0000  0.0000  0.0000  0.0000  0.0000 </r>
        <r>  0.0012  0.0009  0.0068  0.0009  0.0000  0.0000  0.0000  0.0000  0.0000 </r>
        <r>  0.0012  0.0009  0.0068  0.0009  0.0000  0.0000  0.0000  0.0000  0.0000 </r>
        <r>  0.0333  0.0179  0.0022  0.0179  0.0000  0.0000  0.0000  0.0000  0.0000 </r>
        <r>  0.0195  0.0002  0.1144  0.0002  0.0010  0.0005  0.0004  0.0005  0.0000 </r>
        <r>  0.0871  0.0001  0.0070  0.0001  0.0105  0.0002  0.0030  0.0002  0.0000 </r>
       </set>
       <set comment="band 39">
        <r>  0.0000  0.0376  0.0000  0.0376  0.0000  0.0000  0.0000  0.0000  0.0000 </r>
        <r>  0.0000  0.0001  0.0792  0.0001  0.0000  0.0000  0.0000  0.0000  0.0000 </r>
        <r>  0.0000  0.0001  0.0792  0.0001  0.0000  0.0000  0.0000  0.0000  0.0000 </r>
        <r>  0.0000  0.0376  0.0000  0.0376  0.0000  0.0000  0.0000  0.0000  0.0000 </r>
        <r>  0.0000  0.0011  0.0000  0.0011  0.0000  0.0106  0.0000  0.0106  0.0001 </r>
        <r>  0.0000  0.0179  0.0000  0.0179  0.0000  0.0007  0.0000  0.0007  0.0018 </r>
       </set>
       <set comment="band 40">
        <r>  0.0005  0.0007  0.0438  0.0007  0.0000  0.0000  0.0000  0.0000  0.0000 </r>
        <r>  0.0067  0.0360  0.0034  0.0360  0.0000  0.0000  0.0000  0.0000  0.0000 </r>
        <r>  0.0067  0.0360  0.0034  0.0360  0.0000  0.0000  0.0000  0.0000  0.0000 </r>
        <r>  0.0005  0.0007  0.0438  0.0007  0.0000  0.0000  0.0000  0.0000  0.0000 </r>
        <r>  0.0190  0.0131  0.0019  0.0131  0.0105  0.0001  0.0072  0.0001  0.0000 </r>
        <r>  0.0140  0.0000  0.0448  0.0000  0.0001  0.0141  0.0000  0.0141  0.0000 </r>
       </set>
       <set comment="band 41">
        <r>  0.0001  0.0004  0.1045  0.0004  0.0000  0.0000  0.0000  0.0000  0.0000 </r>
        <r>  0.0072  0.0070  0.0001  0.0070  0.0000  0.0000  0.0000  0.0000  0.0000 </r>
        <r>  0.0072  0.0070  0.0001  0.0070  0.0000  0.0000  0.0000  0.0000  0.0000 </r>
        <r>  0.0001  0.0004  0.1045  0.0004  0.0000  0.0000  0.0000  0.0000  0.0000 </r>
        <r>  0.3108  0.0090  0.0089  0.0090  0.0006  0.0000  0.0270  0.0000  0.0000 </r>
        <r>  0.0152  0.0006  0.0095  0.0006  0.0002  0.0040  0.0010  0.0040  0.0000 </r>
       </set>
       <set comment="band 42">
        <r>  0.0065  0.0119  0.0004  0.0119  0.0000  0.0000  0.0000  0.0000  0.0000 </r>
        <r>  0.0000  0.0004  0.1051  0.0004  0.0000  0.0000  0.0000  0.0000  0.0000 </r>
        <r>  0.0000  0.0004  0.1051  0.0004  0.0000  0.0000  0.0000  0.0000  0.0000 </r>
        <r>  0.0065  0.0119  0.0004  0.0119  0.0000  0.0000  0.0000  0.0000  0.0000 </r>
        <r>  0.0085  0.0006  0.0045  0.0006  0.0003  0.0000  0.0008  0.0000  0.0000 </r>
        <r>  0.3308  0.0064  0.0117  0.0064  0.0014  0.0000  0.0277  0.0000  0.0000 </r>
       </set>
       <set comment="band 43">
        <r>  0.0000  0.0043  0.0000  0.0043  0.0000  0.0000  0.0000  0.0000  0.0000 </r>
        <r>  0.0002  0.0019  0.0030  0.0019  0.0000  0.0000  0.0000  0.0000  0.0000 </r>
        <r>  0.0002  0.0019  0.0030  0.0019  0.0000  0.0000  0.0000  0.0000  0.0000 </r>
        <r>  0.0000  0.0043  0.0000  0.0043  0.0000  0.0000  0.0000  0.0000  0.0000 </r>
        <r>  0.0000  0.0095  0.0000  0.0095  0.0000  0.0583  0.0000  0.0583  0.0061 </r>
        <r>  0.0000  0.0054  0.0000  0.0054  0.0000  0.0008  0.0000  0.0008  0.0816 </r>
       </set>
       <set comment="band 44">
        <r>  0.0001  0.0020  0.0038  0.0020  0.0000  0.0000  0.0000  0.0000  0.0000 </r>
        <r>  0.0004  0.0073  0.0011  0.0073  0.0000  0.0000  0.0000  0.0000  0.0000 </r>
        <r>  0.0004  0.0073  0.0011  0.0073  0.0000  0.0000  0.0000  0.0000  0.0000 </r>
        <r>  0.0001  0.0020  0.0038  0.0020  0.0000  0.0000  0.0000  0.0000  0.0000 </r>
        <r>  0.0644  0.0237  0.0014  0.0237  0.0000  0.0009  0.0001  0.0009  0.0000 </r>
        <r>  0.0045  0.0093  0.0041  0.0093  0.0000  0.0842  0.0000  0.0842  0.0000 </r>
       </set>
       <set comment="band 45">
        <r>  0.0000  0.0005  0.0000  0.0005  0.0000  0.0000  0.0000  0.0000  0.0000 </r>
        <r>  0.0000  0.0039  0.0004  0.0039  0.0000  0.0000  0.0000  0.0000  0.0000 </r>
        <r>  0.0000  0.0039  0.0004  0.0039  0.0000  0.0000  0.0000  0.0000  0.0000 </r>
        <r>  0.0000  0.0005  0.0000  0.0005  0.0000  0.0000  0.0000  0.0000  0.0000 </r>
        <r>  0.0000  0.0146  0.0000  0.0146  0.0000  0.0000  0.0000  0.0000  0.1526 </r>
        <r>  0.0000  0.0017  0.0000  0.0017  0.0000  0.0001  0.0000  0.0001  0.0296 </r>
       </set>
       <set comment="band 46">
        <r>  0.0000  0.0006  0.0000  0.0006  0.0000  0.0000  0.0000  0.0000  0.0000 </r>
        <r>  0.0000  0.0002  0.0022  0.0002  0.0000  0.0000  0.0000  0.0000  0.0000 </r>
        <r>  0.0000  0.0002  0.0022  0.0002  0.0000  0.0000  0.0000  0.0000  0.0000 </r>
        <r>  0.0000  0.0006  0.0000  0.0006  0.0000  0.0000  0.0000  0.0000  0.0000 </r>
        <r>  0.0000  0.0010  0.0000  0.0010  0.0000  0.0346  0.0000  0.0346  0.0278 </r>
        <r>  0.0000  0.0432  0.0000  0.0432  0.0000  0.0003  0.0000  0.0003  0.0732 </r>
       </set>
       <set comment="band 47">
        <r>  0.0031  0.0176  0.0004  0.0176  0.0000  0.0000  0.0000  0.0000  0.0000 </r>
        <r>  0.0001  0.0001  0.0000  0.0001  0.0000  0.0000  0.0000  0.0000  0.0000 </r>
        <r>  0.0001  0.0001  0.0000  0.0001  0.0000  0.0000  0.0000  0.0000  0.0000 </r>
        <r>  0.0031  0.0176  0.0004  0.0176  0.0000  0.0000  0.0000  0.0000  0.0000 </r>
        <r>  0.0070  0.0069  0.0654  0.0069  0.0010  0.0003  0.0075  0.0003  0.0000 </r>
        <r>  0.0884  0.0803  0.0074  0.0803  0.0003  0.0025  0.0148  0.0025  0.0000 </r>
       </set>
       <set comment="band 48">
        <r>  0.0001  0.0004  0.0008  0.0004  0.0000  0.0000  0.0000  0.0000  0.0000 </r>
        <r>  0.0013  0.0254  0.0005  0.0254  0.0000  0.0000  0.0000  0.0000  0.0000 </r>
        <r>  0.0013  0.0254  0.0005  0.0254  0.0000  0.0000  0.0000  0.0000  0.0000 </r>
        <r>  0.0001  0.0004  0.0008  0.0004  0.0000  0.0000  0.0000  0.0000  0.0000 </r>
        <r>  0.0331  0.0169  0.0056  0.0169  0.0025  0.0000  0.0193  0.0000  0.0000 </r>
        <r>  0.0038  0.0023  0.0720  0.0023  0.0013  0.0004  0.0076  0.0004  0.0000 </r>
       </set>
       <set comment="band 49">
        <r>  0.0000  0.0004  0.0000  0.0004  0.0000  0.0000  0.0000  0.0000  0.0000 </r>
        <r>  0.0038  0.0181  0.0005  0.0181  0.0000  0.0000  0.0000  0.0000  0.0000 </r>
        <r>  0.0038  0.0181  0.0005  0.0181  0.0000  0.0000  0.0000  0.0000  0.0000 </r>
        <r>  0.0000  0.0004  0.0000  0.0004  0.0000  0.0000  0.0000  0.0000  0.0000 </r>
        <r>  0.0000  0.2266  0.0000  0.2266  0.0000  0.0107  0.0000  0.0107  0.0097 </r>
        <r>  0.0000  0.0201  0.0000  0.0201  0.0000  0.0001  0.0000  0.0001  0.0000 </r>
       </set>
       <set comment="band 50">
        <r>  0.0041  0.0196  0.0062  0.0196  0.0000  0.0000  0.0000  0.0000  0.0000 </r>
        <r>  0.0002  0.0005  0.0019  0.0005  0.0000  0.0000  0.0000  0.0000  0.0000 </r>
        <r>  0.0002  0.0005  0.0019  0.0005  0.0000  0.0000  0.0000  0.0000  0.0000 </r>
        <r>  0.0041  0.0196  0.0062  0.0196  0.0000  0.0000  0.0000  0.0000  0.0000 </r>
        <r>  0.0034  0.0548  0.0220  0.0548  0.0001  0.0000  0.0002  0.0000  0.0000 </r>
        <r>  0.0000  0.1061  0.0003  0.1061  0.0002  0.0088  0.0041  0.0088  0.0000 </r>
       </set>
       <set comment="band 51">
        <r>  0.0024  0.0053  0.0228  0.0053  0.0000  0.0000  0.0000  0.0000  0.0000 </r>
        <r>  0.0019  0.0077  0.0000  0.0077  0.0000  0.0000  0.0000  0.0000  0.0000 </r>
        <r>  0.0019  0.0077  0.0000  0.0077  0.0000  0.0000  0.0000  0.0000  0.0000 </r>
        <r>  0.0024  0.0053  0.0228  0.0053  0.0000  0.0000  0.0000  0.0000  0.0000 </r>
        <r>  0.0537  0.1182  0.0001  0.1182  0.0001  0.0016  0.0026  0.0016  0.0000 </r>
        <r>  0.0033  0.0491  0.0157  0.0491  0.0001  0.0000  0.0002  0.0000  0.0000 </r>
       </set>
       <set comment="band 52">
        <r>  0.0000  0.0092  0.0000  0.0092  0.0000  0.0000  0.0000  0.0000  0.0000 </r>
        <r>  0.0008  0.0017  0.0233  0.0017  0.0000  0.0000  0.0000  0.0000  0.0000 </r>
        <r>  0.0008  0.0017  0.0233  0.0017  0.0000  0.0000  0.0000  0.0000  0.0000 </r>
        <r>  0.0000  0.0091  0.0000  0.0091  0.0000  0.0000  0.0000  0.0000  0.0000 </r>
        <r>  0.0000  0.0159  0.0000  0.0159  0.0000  0.0060  0.0000  0.0060  0.0000 </r>
        <r>  0.0000  0.1766  0.0000  0.1766  0.0000  0.0013  0.0000  0.0013  0.0115 </r>
       </set>
      </set>
     </set>
    </set>
   </array>
  </projected>
 </calculation>
 <structure name="finalpos" >
  <crystal>
   <varray name="basis" >
    <v>       4.59096672       0.00000000       0.00000000 </v>
    <v>       0.00000000       4.59096672       0.00000000 </v>
    <v>       0.00000000       0.00000000       2.95206776 </v>
   </varray>
   <i name="volume">     62.22065961 </i>
   <varray name="rec_basis" >
    <v>       0.21781905      -0.00000000       0.00000000 </v>
    <v>       0.00000000       0.21781905       0.00000000 </v>
    <v>      -0.00000000      -0.00000000       0.33874561 </v>
   </varray>
  </crystal>
  <varray name="positions" >
   <v>       0.69606687       0.69606687       0.50000000 </v>
   <v>       0.19606687       0.80393313       0.00000000 </v>
   <v>       0.80393313       0.19606687       0.00000000 </v>
   <v>       0.30393313       0.30393313       0.50000000 </v>
   <v>       0.50000000       0.50000000       0.00000000 </v>
   <v>       0.00000000       0.00000000       0.50000000 </v>
  </varray>
 </structure>
</modeling>
