<?xml version="1.0" encoding="ISO-8859-1"?>
<modeling>
 <generator>
  <i name="program" type="string">vasp </i>
  <i name="version" type="string">5.4.4.18Apr17-6-g9f103f2a35  </i>
  <i name="subversion" type="string">(build Feb 28 2020 16:27:09) complex            parallel </i>
  <i name="platform" type="string">LinuxIFC </i>
  <i name="date" type="string">2024 09 26 </i>
  <i name="time" type="string">20:18:40 </i>
 </generator>
 <incar>
  <i type="string" name="PREC">accurate</i>
  <i type="string" name="ALGO"> Normal</i>
  <i type="int" name="IBRION">     8</i>
  <i name="EDIFF">      0.00000001</i>
  <i name="ENCUT">    400.00000000</i>
  <i type="logical" name="LREAL"> F  </i>
  <i type="int" name="ISMEAR">     0</i>
  <i name="SIGMA">      0.01000000</i>
  <i type="logical" name="LWAVE"> F  </i>
  <i type="logical" name="LCHARG"> F  </i>
  <v type="int" name="KPOINT_BSE">    -1     0     0     0</v>
  <i type="logical" name="LEPSILON"> T  </i>
 </incar>
 <structure name="primitive_cell" >
  <crystal>
   <varray name="basis" >
    <v>       4.59096672       0.00000000       0.00000000 </v>
    <v>       0.00000000       4.59096672       0.00000000 </v>
    <v>       0.00000000       0.00000000       2.95206776 </v>
   </varray>
   <i name="volume">     62.22065961 </i>
   <varray name="rec_basis" >
    <v>       0.21781905      -0.00000000       0.00000000 </v>
    <v>       0.00000000       0.21781905       0.00000000 </v>
    <v>      -0.00000000      -0.00000000       0.33874561 </v>
   </varray>
  </crystal>
  <varray name="positions" >
   <v>      -0.30393313      -0.30393313      -0.50000000 </v>
   <v>      -0.50000000      -0.50000000       0.00000000 </v>
   <v>       0.00000000       0.00000000      -0.50000000 </v>
   <v>       0.30393313       0.30393313      -0.50000000 </v>
   <v>       0.19606687      -0.19606687       0.00000000 </v>
   <v>      -0.19606687       0.19606687       0.00000000 </v>
  </varray>
 </structure>
 <varray name="primitive_index" >
  <v type="int" >        1 </v>
  <v type="int" >        5 </v>
  <v type="int" >        6 </v>
  <v type="int" >        4 </v>
  <v type="int" >        2 </v>
  <v type="int" >        3 </v>
 </varray>
 <kpoints>
  <generation param="Gamma">
   <v type="int" name="divisions">       9        9       14 </v>
   <v name="usershift">      0.00000000       0.00000000       0.00000000 </v>
   <v name="genvec1">      0.11111111       0.00000000       0.00000000 </v>
   <v name="genvec2">      0.00000000       0.11111111       0.00000000 </v>
   <v name="genvec3">      0.00000000      -0.00000000       0.07142857 </v>
   <v name="shift">      0.00000000       0.00000000       0.00000000 </v>
  </generation>
  <varray name="kpointlist" >
   <v>       0.00000000       0.00000000       0.00000000 </v>
   <v>       0.11111111       0.00000000       0.00000000 </v>
   <v>       0.22222222       0.00000000       0.00000000 </v>
   <v>       0.33333333       0.00000000       0.00000000 </v>
   <v>       0.44444444       0.00000000       0.00000000 </v>
   <v>       0.11111111       0.11111111       0.00000000 </v>
   <v>       0.22222222       0.11111111       0.00000000 </v>
   <v>       0.33333333       0.11111111       0.00000000 </v>
   <v>       0.44444444       0.11111111       0.00000000 </v>
   <v>       0.22222222       0.22222222       0.00000000 </v>
   <v>       0.33333333       0.22222222       0.00000000 </v>
   <v>       0.44444444       0.22222222       0.00000000 </v>
   <v>       0.33333333       0.33333333       0.00000000 </v>
   <v>       0.44444444       0.33333333       0.00000000 </v>
   <v>       0.44444444       0.44444444       0.00000000 </v>
   <v>       0.00000000       0.00000000       0.07142857 </v>
   <v>       0.11111111       0.00000000       0.07142857 </v>
   <v>       0.22222222       0.00000000       0.07142857 </v>
   <v>       0.33333333       0.00000000       0.07142857 </v>
   <v>       0.44444444       0.00000000       0.07142857 </v>
   <v>       0.11111111       0.11111111       0.07142857 </v>
   <v>       0.22222222       0.11111111       0.07142857 </v>
   <v>       0.33333333       0.11111111       0.07142857 </v>
   <v>       0.44444444       0.11111111       0.07142857 </v>
   <v>       0.22222222       0.22222222       0.07142857 </v>
   <v>       0.33333333       0.22222222       0.07142857 </v>
   <v>       0.44444444       0.22222222       0.07142857 </v>
   <v>       0.33333333       0.33333333       0.07142857 </v>
   <v>       0.44444444       0.33333333       0.07142857 </v>
   <v>       0.44444444       0.44444444       0.07142857 </v>
   <v>       0.00000000       0.00000000       0.14285714 </v>
   <v>       0.11111111       0.00000000       0.14285714 </v>
   <v>       0.22222222       0.00000000       0.14285714 </v>
   <v>       0.33333333       0.00000000       0.14285714 </v>
   <v>       0.44444444       0.00000000       0.14285714 </v>
   <v>       0.11111111       0.11111111       0.14285714 </v>
   <v>       0.22222222       0.11111111       0.14285714 </v>
   <v>       0.33333333       0.11111111       0.14285714 </v>
   <v>       0.44444444       0.11111111       0.14285714 </v>
   <v>       0.22222222       0.22222222       0.14285714 </v>
   <v>       0.33333333       0.22222222       0.14285714 </v>
   <v>       0.44444444       0.22222222       0.14285714 </v>
   <v>       0.33333333       0.33333333       0.14285714 </v>
   <v>       0.44444444       0.33333333       0.14285714 </v>
   <v>       0.44444444       0.44444444       0.14285714 </v>
   <v>       0.00000000       0.00000000       0.21428571 </v>
   <v>       0.11111111       0.00000000       0.21428571 </v>
   <v>       0.22222222       0.00000000       0.21428571 </v>
   <v>       0.33333333       0.00000000       0.21428571 </v>
   <v>       0.44444444       0.00000000       0.21428571 </v>
   <v>       0.11111111       0.11111111       0.21428571 </v>
   <v>       0.22222222       0.11111111       0.21428571 </v>
   <v>       0.33333333       0.11111111       0.21428571 </v>
   <v>       0.44444444       0.11111111       0.21428571 </v>
   <v>       0.22222222       0.22222222       0.21428571 </v>
   <v>       0.33333333       0.22222222       0.21428571 </v>
   <v>       0.44444444       0.22222222       0.21428571 </v>
   <v>       0.33333333       0.33333333       0.21428571 </v>
   <v>       0.44444444       0.33333333       0.21428571 </v>
   <v>       0.44444444       0.44444444       0.21428571 </v>
   <v>       0.00000000       0.00000000       0.28571429 </v>
   <v>       0.11111111       0.00000000       0.28571429 </v>
   <v>       0.22222222       0.00000000       0.28571429 </v>
   <v>       0.33333333       0.00000000       0.28571429 </v>
   <v>       0.44444444       0.00000000       0.28571429 </v>
   <v>       0.11111111       0.11111111       0.28571429 </v>
   <v>       0.22222222       0.11111111       0.28571429 </v>
   <v>       0.33333333       0.11111111       0.28571429 </v>
   <v>       0.44444444       0.11111111       0.28571429 </v>
   <v>       0.22222222       0.22222222       0.28571429 </v>
   <v>       0.33333333       0.22222222       0.28571429 </v>
   <v>       0.44444444       0.22222222       0.28571429 </v>
   <v>       0.33333333       0.33333333       0.28571429 </v>
   <v>       0.44444444       0.33333333       0.28571429 </v>
   <v>       0.44444444       0.44444444       0.28571429 </v>
   <v>      -0.00000000       0.00000000       0.35714286 </v>
   <v>       0.11111111       0.00000000       0.35714286 </v>
   <v>       0.22222222       0.00000000       0.35714286 </v>
   <v>       0.33333333       0.00000000       0.35714286 </v>
   <v>       0.44444444       0.00000000       0.35714286 </v>
   <v>       0.11111111       0.11111111       0.35714286 </v>
   <v>       0.22222222       0.11111111       0.35714286 </v>
   <v>       0.33333333       0.11111111       0.35714286 </v>
   <v>       0.44444444       0.11111111       0.35714286 </v>
   <v>       0.22222222       0.22222222       0.35714286 </v>
   <v>       0.33333333       0.22222222       0.35714286 </v>
   <v>       0.44444444       0.22222222       0.35714286 </v>
   <v>       0.33333333       0.33333333       0.35714286 </v>
   <v>       0.44444444       0.33333333       0.35714286 </v>
   <v>       0.44444444       0.44444444       0.35714286 </v>
   <v>       0.00000000       0.00000000       0.42857143 </v>
   <v>       0.11111111       0.00000000       0.42857143 </v>
   <v>       0.22222222       0.00000000       0.42857143 </v>
   <v>       0.33333333       0.00000000       0.42857143 </v>
   <v>       0.44444444       0.00000000       0.42857143 </v>
   <v>       0.11111111       0.11111111       0.42857143 </v>
   <v>       0.22222222       0.11111111       0.42857143 </v>
   <v>       0.33333333       0.11111111       0.42857143 </v>
   <v>       0.44444444       0.11111111       0.42857143 </v>
   <v>       0.22222222       0.22222222       0.42857143 </v>
   <v>       0.33333333       0.22222222       0.42857143 </v>
   <v>       0.44444444       0.22222222       0.42857143 </v>
   <v>       0.33333333       0.33333333       0.42857143 </v>
   <v>       0.44444444       0.33333333       0.42857143 </v>
   <v>       0.44444444       0.44444444       0.42857143 </v>
   <v>       0.00000000       0.00000000       0.50000000 </v>
   <v>       0.11111111       0.00000000       0.50000000 </v>
   <v>       0.22222222       0.00000000       0.50000000 </v>
   <v>       0.33333333       0.00000000       0.50000000 </v>
   <v>       0.44444444       0.00000000       0.50000000 </v>
   <v>       0.11111111       0.11111111       0.50000000 </v>
   <v>       0.22222222       0.11111111       0.50000000 </v>
   <v>       0.33333333       0.11111111       0.50000000 </v>
   <v>       0.44444444       0.11111111       0.50000000 </v>
   <v>       0.22222222       0.22222222       0.50000000 </v>
   <v>       0.33333333       0.22222222       0.50000000 </v>
   <v>       0.44444444       0.22222222       0.50000000 </v>
   <v>       0.33333333       0.33333333       0.50000000 </v>
   <v>       0.44444444       0.33333333       0.50000000 </v>
   <v>       0.44444444       0.44444444       0.50000000 </v>
  </varray>
  <varray name="weights" >
   <v>       0.00088183 </v>
   <v>       0.00352734 </v>
   <v>       0.00352734 </v>
   <v>       0.00352734 </v>
   <v>       0.00352734 </v>
   <v>       0.00352734 </v>
   <v>       0.00705467 </v>
   <v>       0.00705467 </v>
   <v>       0.00705467 </v>
   <v>       0.00352734 </v>
   <v>       0.00705467 </v>
   <v>       0.00705467 </v>
   <v>       0.00352734 </v>
   <v>       0.00705467 </v>
   <v>       0.00352734 </v>
   <v>       0.00176367 </v>
   <v>       0.00705467 </v>
   <v>       0.00705467 </v>
   <v>       0.00705467 </v>
   <v>       0.00705467 </v>
   <v>       0.00705467 </v>
   <v>       0.01410935 </v>
   <v>       0.01410935 </v>
   <v>       0.01410935 </v>
   <v>       0.00705467 </v>
   <v>       0.01410935 </v>
   <v>       0.01410935 </v>
   <v>       0.00705467 </v>
   <v>       0.01410935 </v>
   <v>       0.00705467 </v>
   <v>       0.00176367 </v>
   <v>       0.00705467 </v>
   <v>       0.00705467 </v>
   <v>       0.00705467 </v>
   <v>       0.00705467 </v>
   <v>       0.00705467 </v>
   <v>       0.01410935 </v>
   <v>       0.01410935 </v>
   <v>       0.01410935 </v>
   <v>       0.00705467 </v>
   <v>       0.01410935 </v>
   <v>       0.01410935 </v>
   <v>       0.00705467 </v>
   <v>       0.01410935 </v>
   <v>       0.00705467 </v>
   <v>       0.00176367 </v>
   <v>       0.00705467 </v>
   <v>       0.00705467 </v>
   <v>       0.00705467 </v>
   <v>       0.00705467 </v>
   <v>       0.00705467 </v>
   <v>       0.01410935 </v>
   <v>       0.01410935 </v>
   <v>       0.01410935 </v>
   <v>       0.00705467 </v>
   <v>       0.01410935 </v>
   <v>       0.01410935 </v>
   <v>       0.00705467 </v>
   <v>       0.01410935 </v>
   <v>       0.00705467 </v>
   <v>       0.00176367 </v>
   <v>       0.00705467 </v>
   <v>       0.00705467 </v>
   <v>       0.00705467 </v>
   <v>       0.00705467 </v>
   <v>       0.00705467 </v>
   <v>       0.01410935 </v>
   <v>       0.01410935 </v>
   <v>       0.01410935 </v>
   <v>       0.00705467 </v>
   <v>       0.01410935 </v>
   <v>       0.01410935 </v>
   <v>       0.00705467 </v>
   <v>       0.01410935 </v>
   <v>       0.00705467 </v>
   <v>       0.00176367 </v>
   <v>       0.00705467 </v>
   <v>       0.00705467 </v>
   <v>       0.00705467 </v>
   <v>       0.00705467 </v>
   <v>       0.00705467 </v>
   <v>       0.01410935 </v>
   <v>       0.01410935 </v>
   <v>       0.01410935 </v>
   <v>       0.00705467 </v>
   <v>       0.01410935 </v>
   <v>       0.01410935 </v>
   <v>       0.00705467 </v>
   <v>       0.01410935 </v>
   <v>       0.00705467 </v>
   <v>       0.00176367 </v>
   <v>       0.00705467 </v>
   <v>       0.00705467 </v>
   <v>       0.00705467 </v>
   <v>       0.00705467 </v>
   <v>       0.00705467 </v>
   <v>       0.01410935 </v>
   <v>       0.01410935 </v>
   <v>       0.01410935 </v>
   <v>       0.00705467 </v>
   <v>       0.01410935 </v>
   <v>       0.01410935 </v>
   <v>       0.00705467 </v>
   <v>       0.01410935 </v>
   <v>       0.00705467 </v>
   <v>       0.00088183 </v>
   <v>       0.00352734 </v>
   <v>       0.00352734 </v>
   <v>       0.00352734 </v>
   <v>       0.00352734 </v>
   <v>       0.00352734 </v>
   <v>       0.00705467 </v>
   <v>       0.00705467 </v>
   <v>       0.00705467 </v>
   <v>       0.00352734 </v>
   <v>       0.00705467 </v>
   <v>       0.00705467 </v>
   <v>       0.00352734 </v>
   <v>       0.00705467 </v>
   <v>       0.00352734 </v>
  </varray>
 </kpoints>
 <parameters>
  <separator name="general" >
   <i type="string" name="SYSTEM">unknown system</i>
   <i type="logical" name="LCOMPAT"> F  </i>
  </separator>
  <separator name="electronic" >
   <i type="string" name="PREC">accura</i>
   <i name="ENMAX">    400.00000000</i>
   <i name="ENAUG">    605.39200000</i>
   <i name="EDIFF">      0.00000001</i>
   <i type="int" name="IALGO">    38</i>
   <i type="int" name="IWAVPR">    11</i>
   <i type="int" name="NBANDS">    48</i>
   <i name="NELECT">     48.00000000</i>
   <i type="int" name="TURBO">     0</i>
   <i type="int" name="IRESTART">     0</i>
   <i type="int" name="NREBOOT">     0</i>
   <i type="int" name="NMIN">     0</i>
   <i name="EREF">      0.00000000</i>
   <separator name="electronic smearing" >
    <i type="int" name="ISMEAR">     0</i>
    <i name="SIGMA">      0.01000000</i>
    <i name="KSPACING">      0.50000000</i>
    <i type="logical" name="KGAMMA"> T  </i>
   </separator>
   <separator name="electronic projectors" >
    <i type="logical" name="LREAL"> F  </i>
    <v name="ROPT">      0.00000000      0.00000000</v>
    <i type="int" name="LMAXPAW">  -100</i>
    <i type="int" name="LMAXMIX">     2</i>
    <i type="logical" name="NLSPLINE"> F  </i>
   </separator>
   <separator name="electronic startup" >
    <i type="int" name="ISTART">     0</i>
    <i type="int" name="ICHARG">     2</i>
    <i type="int" name="INIWAV">     1</i>
   </separator>
   <separator name="electronic spin" >
    <i type="int" name="ISPIN">     1</i>
    <i type="logical" name="LNONCOLLINEAR"> F  </i>
    <v name="MAGMOM">      1.00000000      1.00000000      1.00000000      1.00000000      1.00000000      1.00000000</v>
    <i name="NUPDOWN">     -1.00000000</i>
    <i type="logical" name="LSORBIT"> F  </i>
    <v name="SAXIS">      0.00000000      0.00000000      1.00000000</v>
    <i type="logical" name="LSPIRAL"> F  </i>
    <v name="QSPIRAL">      0.00000000      0.00000000      0.00000000</v>
    <i type="logical" name="LZEROZ"> F  </i>
   </separator>
   <separator name="electronic exchange-correlation" >
    <i type="logical" name="LASPH"> F  </i>
    <i type="logical" name="LMETAGGA"> F  </i>
   </separator>
   <separator name="electronic convergence" >
    <i type="int" name="NELM">    60</i>
    <i type="int" name="NELMDL">     0</i>
    <i type="int" name="NELMIN">     2</i>
    <i name="ENINI">    400.00000000</i>
    <separator name="electronic convergence detail" >
     <i type="logical" name="LDIAG"> T  </i>
     <i type="logical" name="LSUBROT"> F  </i>
     <i name="WEIMIN">      0.00100000</i>
     <i name="EBREAK">      0.00000000</i>
     <i name="DEPER">      0.30000000</i>
     <i type="int" name="NRMM">     4</i>
     <i name="TIME">      0.40000000</i>
    </separator>
   </separator>
   <separator name="electronic mixer" >
    <i name="AMIX">      0.40000000</i>
    <i name="BMIX">      1.00000000</i>
    <i name="AMIN">      0.10000000</i>
    <i name="AMIX_MAG">      1.60000000</i>
    <i name="BMIX_MAG">      1.00000000</i>
    <separator name="electronic mixer details" >
     <i type="int" name="IMIX">     4</i>
     <i type="logical" name="MIXFIRST"> F  </i>
     <i type="int" name="MAXMIX">   -45</i>
     <i name="WC">    100.00000000</i>
     <i type="int" name="INIMIX">     1</i>
     <i type="int" name="MIXPRE">     1</i>
     <i type="int" name="MREMOVE">     5</i>
    </separator>
   </separator>
   <separator name="electronic dipolcorrection" >
    <i type="logical" name="LDIPOL"> F  </i>
    <i type="logical" name="LMONO"> F  </i>
    <i type="int" name="IDIPOL">     0</i>
    <i name="EPSILON">      1.00000000</i>
    <v name="DIPOL">   -100.00000000   -100.00000000   -100.00000000</v>
    <i name="EFIELD">      0.00000000</i>
   </separator>
  </separator>
  <separator name="grids" >
   <i type="int" name="NGX">    30</i>
   <i type="int" name="NGY">    30</i>
   <i type="int" name="NGZ">    20</i>
   <i type="int" name="NGXF">    60</i>
   <i type="int" name="NGYF">    60</i>
   <i type="int" name="NGZF">    40</i>
   <i type="logical" name="ADDGRID"> F  </i>
  </separator>
  <separator name="ionic" >
   <i type="int" name="NSW">     1</i>
   <i type="int" name="IBRION">     8</i>
   <i type="int" name="MDALGO">     0</i>
   <i type="int" name="ISIF">     2</i>
   <i name="PSTRESS">      0.00000000</i>
   <i name="EDIFFG">      0.00000010</i>
   <i type="int" name="NFREE">     0</i>
   <i name="POTIM">      0.50000000</i>
   <i name="SMASS">     -3.00000000</i>
   <i name="SCALEE">      1.00000000</i>
  </separator>
  <separator name="ionic md" >
   <i name="TEBEG">      0.00010000</i>
   <i name="TEEND">      0.00010000</i>
   <i type="int" name="NBLOCK">     1</i>
   <i type="int" name="KBLOCK">     1</i>
   <i type="int" name="NPACO">   256</i>
   <i name="APACO">     16.00000000</i>
  </separator>
  <separator name="symmetry" >
   <i type="int" name="ISYM">     2</i>
   <i name="SYMPREC">      0.00001000</i>
  </separator>
  <separator name="dos" >
   <i type="int" name="LORBIT">     0</i>
   <v name="RWIGS">     -1.00000000     -1.00000000</v>
   <i type="int" name="NEDOS">   301</i>
   <i name="EMIN">     10.00000000</i>
   <i name="EMAX">    -10.00000000</i>
   <i name="EFERMI">      0.00000000</i>
  </separator>
  <separator name="writing" >
   <i type="int" name="NWRITE">     2</i>
   <i type="logical" name="LWAVE"> F  </i>
   <i type="logical" name="LDOWNSAMPLE"> F  </i>
   <i type="logical" name="LCHARG"> F  </i>
   <i type="logical" name="LPARD"> F  </i>
   <i type="logical" name="LVTOT"> F  </i>
   <i type="logical" name="LVHAR"> F  </i>
   <i type="logical" name="LELF"> F  </i>
   <i type="logical" name="LOPTICS"> F  </i>
   <v name="STM">      0.00000000      0.00000000      0.00000000      0.00000000      0.00000000      0.00000000      0.00000000</v>
  </separator>
  <separator name="performance" >
   <i type="int" name="NPAR">    48</i>
   <i type="int" name="NSIM">     4</i>
   <i type="int" name="NBLK">    -1</i>
   <i type="logical" name="LPLANE"> T  </i>
   <i type="logical" name="LSCALAPACK"> F  </i>
   <i type="logical" name="LSCAAWARE"> F  </i>
   <i type="logical" name="LSCALU"> F  </i>
   <i type="logical" name="LASYNC"> F  </i>
   <i type="logical" name="LORBITALREAL"> F  </i>
  </separator>
  <separator name="miscellaneous" >
   <i type="int" name="IDIOT">     3</i>
   <i type="int" name="ISPECIAL">     0</i>
   <i type="logical" name="LMUSIC"> F  </i>
   <v name="POMASS">     16.00000000     47.88000000</v>
   <v name="DARWINR">      0.00000000      0.00000000</v>
   <v name="DARWINV">      1.00000000      1.00000000</v>
   <i type="logical" name="LCORR"> T  </i>
  </separator>
  <i type="logical" name="GGA_COMPAT"> T  </i>
  <i type="logical" name="LBERRY"> F  </i>
  <i type="int" name="ICORELEVEL">     0</i>
  <i type="logical" name="LDAU"> F  </i>
  <i type="int" name="I_CONSTRAINED_M">     0</i>
  <separator name="electronic exchange-correlation" >
   <i type="string" name="GGA">--</i>
   <i type="int" name="VOSKOWN">     0</i>
   <i type="logical" name="LHFCALC"> F  </i>
   <i type="string" name="PRECFOCK"></i>
   <i type="logical" name="LSYMGRAD"> F  </i>
   <i type="logical" name="LHFONE"> F  </i>
   <i type="logical" name="LRHFCALC"> F  </i>
   <i type="logical" name="LTHOMAS"> F  </i>
   <i type="logical" name="LMODELHF"> F  </i>
   <i name="ENCUT4O">     -1.00000000</i>
   <i type="int" name="EXXOEP">     0</i>
   <i type="int" name="FOURORBIT">     0</i>
   <i name="AEXX">      0.00000000</i>
   <i name="HFALPHA">      0.00000000</i>
   <i name="MCALPHA">      0.00000000</i>
   <i name="ALDAX">      1.00000000</i>
   <i name="AGGAX">      1.00000000</i>
   <i name="ALDAC">      1.00000000</i>
   <i name="AGGAC">      1.00000000</i>
   <i type="int" name="NKREDX">     1</i>
   <i type="int" name="NKREDY">     1</i>
   <i type="int" name="NKREDZ">     1</i>
   <i type="logical" name="SHIFTRED"> F  </i>
   <i type="logical" name="ODDONLY"> F  </i>
   <i type="logical" name="EVENONLY"> F  </i>
   <i type="int" name="LMAXFOCK">     0</i>
   <i type="int" name="NMAXFOCKAE">     0</i>
   <i type="logical" name="LFOCKAEDFT"> F  </i>
   <i name="HFSCREEN">      0.00000000</i>
   <i name="HFSCREENC">      0.00000000</i>
   <i type="int" name="NBANDSGWLOW">     0</i>
  </separator>
  <separator name="vdW DFT" >
   <i type="logical" name="LUSE_VDW"> F  </i>
   <i name="Zab_VDW">     -0.84910000</i>
   <i name="PARAM1">      0.12340000</i>
   <i name="PARAM2">      1.00000000</i>
   <i name="PARAM3">      0.00000000</i>
  </separator>
  <separator name="model GW" >
   <i type="int" name="MODEL_GW">     0</i>
   <i name="MODEL_EPS0">      6.22206596</i>
   <i name="MODEL_ALPHA">      1.00000000</i>
  </separator>
  <separator name="linear response parameters" >
   <i type="logical" name="LEPSILON"> T  </i>
   <i type="logical" name="LRPA"> F  </i>
   <i type="logical" name="LNABLA"> F  </i>
   <i type="logical" name="LVEL"> F  </i>
   <i type="int" name="KINTER">     0</i>
   <i name="CSHIFT">      0.10000000</i>
   <i name="OMEGAMAX">     -1.00000000</i>
   <i name="DEG_THRESHOLD">      0.00200000</i>
   <i name="RTIME">     -0.10000000</i>
   <i name="WPLASMAI">      0.00000000</i>
   <v name="DFIELD">      0.00000000      0.00000000      0.00000000</v>
   <v name="WPLASMA">      0.00000000      0.00000000      0.00000000      0.00000000      0.00000000      0.00000000      0.00000000      0.00000000      0.00000000</v>
  </separator>
  <separator name="orbital magnetization" >
   <i type="logical" name="NUCIND"> F  </i>
   <v name="MAGPOS">      0.00000000      0.00000000      0.00000000</v>
   <i type="logical" name="LNICSALL"> T  </i>
   <i type="logical" name="ORBITALMAG"> F  </i>
   <i type="logical" name="LMAGBLOCH"> F  </i>
   <i type="logical" name="LCHIMAG"> F  </i>
   <i type="logical" name="LGAUGE"> T  </i>
   <i type="int" name="MAGATOM">     0</i>
   <v name="MAGDIPOL">      0.00000000      0.00000000      0.00000000</v>
   <v name="AVECCONST">      0.00000000      0.00000000      0.00000000</v>
  </separator>
  <separator name="response functions" >
   <i type="logical" name="LADDER"> F  </i>
   <i type="logical" name="LRPAFORCE"> F  </i>
   <i type="logical" name="LFXC"> F  </i>
   <i type="logical" name="LHARTREE"> T  </i>
   <i type="int" name="IBSE">     0</i>
   <v type="int" name="KPOINT">    -1     0     0     0</v>
   <i type="logical" name="LTCTE"> F  </i>
   <i type="logical" name="LTETE"> F  </i>
   <i type="logical" name="LTRIPLET"> F  </i>
   <i type="logical" name="LFXCEPS"> F  </i>
   <i type="logical" name="LFXHEG"> F  </i>
   <i type="int" name="NATURALO">     2</i>
   <i type="logical" name="L2ORDER"> F  </i>
   <i type="logical" name="LMP2LT"> F  </i>
   <i type="logical" name="LUSEW"> F  </i>
   <i name="ENCUTGW">     -2.00000000</i>
   <i name="ENCUTGWSOFT">     -2.00000000</i>
   <i name="ENCUTLF">     -1.00000000</i>
   <i type="int" name="LMAXMP2">    -1</i>
   <i name="SCISSOR">      0.00000000</i>
   <i type="int" name="NOMEGA">     0</i>
   <i type="int" name="NOMEGAR">     0</i>
   <i type="int" name="NBANDSGW">    -1</i>
   <i type="int" name="NBANDSO">    -1</i>
   <i type="int" name="NBANDSV">    -1</i>
   <i type="int" name="NELM">     1</i>
   <i type="int" name="NELMHF">     1</i>
   <i type="int" name="DIM">     3</i>
   <i type="int" name="ANTIRES">     0</i>
   <i name="OMEGAMAX">    -30.00000000</i>
   <i name="OMEGAMIN">    -30.00000000</i>
   <i name="OMEGATL">   -200.00000000</i>
   <i type="int" name="OMEGAGRID">   140</i>
   <i name="CSHIFT">     -0.10000000</i>
   <i type="logical" name="SELFENERGY"> F  </i>
   <i type="logical" name="LSPECTRAL"> F  </i>
   <i type="logical" name="LSPECTRALGW"> F  </i>
   <i type="logical" name="LSINGLES"> F  </i>
   <i type="logical" name="LFERMIGW"> F  </i>
   <i type="logical" name="ODDONLYGW"> F  </i>
   <i type="logical" name="EVENONLYGW"> F  </i>
   <i type="int" name="NKREDLFX">     1</i>
   <i type="int" name="NKREDLFY">     1</i>
   <i type="int" name="NKREDLFZ">     1</i>
   <i type="int" name="MAXMEM">  2800</i>
   <i type="int" name="TELESCOPE">     0</i>
   <i type="int" name="TAUPAR">     1</i>
   <i type="int" name="OMEGAPAR">    -1</i>
   <i name="LAMBDA">      1.00000000</i>
  </separator>
  <separator name="External order field" >
   <i name="OFIELD_KAPPA">      0.00000000</i>
   <v name="OFIELD_K">      0.00000000      0.00000000      0.00000000</v>
   <i name="OFIELD_Q6_NEAR">      0.00000000</i>
   <i name="OFIELD_Q6_FAR">      0.00000000</i>
   <i name="OFIELD_A">      0.00000000</i>
  </separator>
 </parameters>
 <atominfo>
  <atoms>       6 </atoms>
  <types>       2 </types>
  <array name="atoms" >
   <dimension dim="1">ion</dimension>
   <field type="string">element</field>
   <field type="int">atomtype</field>
   <set>
    <rc><c>O </c><c>   1</c></rc>
    <rc><c>O </c><c>   1</c></rc>
    <rc><c>O </c><c>   1</c></rc>
    <rc><c>O </c><c>   1</c></rc>
    <rc><c>Ti</c><c>   2</c></rc>
    <rc><c>Ti</c><c>   2</c></rc>
   </set>
  </array>
  <array name="atomtypes" >
   <dimension dim="1">type</dimension>
   <field type="int">atomspertype</field>
   <field type="string">element</field>
   <field>mass</field>
   <field>valence</field>
   <field type="string">pseudopotential</field>
   <set>
    <rc><c>   4</c><c>O </c><c>     16.00000000</c><c>      6.00000000</c><c>  PAW_PBE O 08Apr2002                   </c></rc>
    <rc><c>   2</c><c>Ti</c><c>     47.88000000</c><c>     12.00000000</c><c>  PAW_PBE Ti_sv 26Sep2005               </c></rc>
   </set>
  </array>
 </atominfo>
 <structure name="initialpos" >
  <crystal>
   <varray name="basis" >
    <v>       4.59096672       0.00000000       0.00000000 </v>
    <v>       0.00000000       4.59096672       0.00000000 </v>
    <v>       0.00000000       0.00000000       2.95206776 </v>
   </varray>
   <i name="volume">     62.22065961 </i>
   <varray name="rec_basis" >
    <v>       0.21781905      -0.00000000       0.00000000 </v>
    <v>       0.00000000       0.21781905       0.00000000 </v>
    <v>      -0.00000000      -0.00000000       0.33874561 </v>
   </varray>
  </crystal>
  <varray name="positions" >
   <v>       0.69606687       0.69606687       0.50000000 </v>
   <v>       0.19606687       0.80393313       0.00000000 </v>
   <v>       0.80393313       0.19606687       0.00000000 </v>
   <v>       0.30393313       0.30393313       0.50000000 </v>
   <v>       0.50000000       0.50000000       0.00000000 </v>
   <v>       0.00000000       0.00000000       0.50000000 </v>
  </varray>
 </structure>
 <calculation>
  <scstep>
   <time name="dav">    4.10    4.11</time>
   <time name="total">    4.12    4.16</time>
   <energy>
    <i name="alphaZ">    199.29430999 </i>
    <i name="ewald">  -3601.14072637 </i>
    <i name="hartreedc">  -1253.06244097 </i>
    <i name="XCdc">    235.32039925 </i>
    <i name="pawpsdc">   3915.32828904 </i>
    <i name="pawaedc">  -3883.35319469 </i>
    <i name="eentropy">      0.00000000 </i>
    <i name="bandstr">   -431.29270674 </i>
    <i name="atom">   4905.20341037 </i>
    <i name="e_fr_energy">     86.29733989 </i>
    <i name="e_wo_entrp">     86.29733989 </i>
    <i name="e_0_energy">     86.29733989 </i>
   </energy>
  </scstep>
  <scstep>
   <time name="dav">    7.22    7.22</time>
   <time name="total">    7.22    7.23</time>
   <energy>
    <i name="e_fr_energy">    -67.79771311 </i>
    <i name="e_wo_entrp">    -67.79771311 </i>
    <i name="e_0_energy">    -67.79771311 </i>
   </energy>
  </scstep>
  <scstep>
   <time name="dav">    5.84    5.84</time>
   <time name="total">    5.84    5.84</time>
   <energy>
    <i name="e_fr_energy">    -70.89160052 </i>
    <i name="e_wo_entrp">    -70.89160052 </i>
    <i name="e_0_energy">    -70.89160052 </i>
   </energy>
  </scstep>
  <scstep>
   <time name="dav">    7.46    7.47</time>
   <time name="total">    7.46    7.47</time>
   <energy>
    <i name="e_fr_energy">    -70.98300875 </i>
    <i name="e_wo_entrp">    -70.98300875 </i>
    <i name="e_0_energy">    -70.98300875 </i>
   </energy>
  </scstep>
  <scstep>
   <time name="dav">    5.71    5.71</time>
   <time name="total">    5.75    5.78</time>
   <energy>
    <i name="e_fr_energy">    -70.98320470 </i>
    <i name="e_wo_entrp">    -70.98320470 </i>
    <i name="e_0_energy">    -70.98320470 </i>
   </energy>
  </scstep>
  <scstep>
   <time name="dav">    6.80    6.90</time>
   <time name="total">    6.86    6.96</time>
   <energy>
    <i name="e_fr_energy">    -54.85756572 </i>
    <i name="e_wo_entrp">    -54.85756572 </i>
    <i name="e_0_energy">    -54.85756572 </i>
   </energy>
  </scstep>
  <scstep>
   <time name="dav">    5.31    5.31</time>
   <time name="total">    5.37    5.38</time>
   <energy>
    <i name="e_fr_energy">    -53.96647983 </i>
    <i name="e_wo_entrp">    -53.96647983 </i>
    <i name="e_0_energy">    -53.96647983 </i>
   </energy>
  </scstep>
  <scstep>
   <time name="dav">    6.69    6.69</time>
   <time name="total">    6.75    6.74</time>
   <energy>
    <i name="e_fr_energy">    -54.87418670 </i>
    <i name="e_wo_entrp">    -54.87418670 </i>
    <i name="e_0_energy">    -54.87418670 </i>
   </energy>
  </scstep>
  <scstep>
   <time name="dav">    5.11    5.11</time>
   <time name="total">    5.17    5.16</time>
   <energy>
    <i name="e_fr_energy">    -53.73495719 </i>
    <i name="e_wo_entrp">    -53.73495719 </i>
    <i name="e_0_energy">    -53.73495719 </i>
   </energy>
  </scstep>
  <scstep>
   <time name="dav">    7.25    7.25</time>
   <time name="total">    7.31    7.31</time>
   <energy>
    <i name="e_fr_energy">    -53.69671213 </i>
    <i name="e_wo_entrp">    -53.69671213 </i>
    <i name="e_0_energy">    -53.69671213 </i>
   </energy>
  </scstep>
  <scstep>
   <time name="dav">    5.56    5.56</time>
   <time name="total">    5.61    5.61</time>
   <energy>
    <i name="e_fr_energy">    -53.69825186 </i>
    <i name="e_wo_entrp">    -53.69825186 </i>
    <i name="e_0_energy">    -53.69825186 </i>
   </energy>
  </scstep>
  <scstep>
   <time name="dav">    5.87    7.12</time>
   <time name="total">    5.92    7.18</time>
   <energy>
    <i name="e_fr_energy">    -53.69748396 </i>
    <i name="e_wo_entrp">    -53.69748396 </i>
    <i name="e_0_energy">    -53.69748396 </i>
   </energy>
  </scstep>
  <scstep>
   <time name="dav">    7.60    7.63</time>
   <time name="total">    7.65    7.68</time>
   <energy>
    <i name="e_fr_energy">    -53.69748839 </i>
    <i name="e_wo_entrp">    -53.69748839 </i>
    <i name="e_0_energy">    -53.69748839 </i>
   </energy>
  </scstep>
  <scstep>
   <time name="dav">    7.37    7.37</time>
   <time name="total">    7.43    7.43</time>
   <energy>
    <i name="e_fr_energy">    -53.69748774 </i>
    <i name="e_wo_entrp">    -53.69748774 </i>
    <i name="e_0_energy">    -53.69748774 </i>
   </energy>
  </scstep>
  <scstep>
   <time name="dav">    7.04    7.05</time>
   <time name="total">    7.10    7.10</time>
   <energy>
    <i name="e_fr_energy">    -53.69748787 </i>
    <i name="e_wo_entrp">    -53.69748787 </i>
    <i name="e_0_energy">    -53.69748787 </i>
   </energy>
  </scstep>
  <scstep>
   <time name="dav">    6.62    6.62</time>
   <time name="total">    6.67    6.67</time>
   <energy>
    <i name="e_fr_energy">    -53.69748791 </i>
    <i name="e_wo_entrp">    -53.69748791 </i>
    <i name="e_0_energy">    -53.69748791 </i>
   </energy>
  </scstep>
  <scstep>
   <time name="dav">    5.18    5.18</time>
   <time name="total">    5.23    5.23</time>
   <energy>
    <i name="e_fr_energy">    -53.69748786 </i>
    <i name="e_wo_entrp">    -53.69748786 </i>
    <i name="e_0_energy">    -53.69748786 </i>
   </energy>
  </scstep>
  <scstep>
   <time name="dav">    2.54    2.54</time>
   <time name="total">    2.56    2.56</time>
   <energy>
    <i name="alphaZ">    199.29430999 </i>
    <i name="ewald">  -3601.14072637 </i>
    <i name="hartreedc">  -1235.29197140 </i>
    <i name="XCdc">    236.56835003 </i>
    <i name="pawpsdc">   5565.99931059 </i>
    <i name="pawaedc">  -5527.92555567 </i>
    <i name="eentropy">     -0.00000000 </i>
    <i name="bandstr">   -596.40461540 </i>
    <i name="atom">   4905.20341037 </i>
    <i name="e_fr_energy">    -53.69748787 </i>
    <i name="e_wo_entrp">    -53.69748787 </i>
    <i name="e_0_energy">    -53.69748787 </i>
   </energy>
  </scstep>
  <structure>
   <crystal>
    <varray name="basis" >
     <v>       4.59096672       0.00000000       0.00000000 </v>
     <v>       0.00000000       4.59096672       0.00000000 </v>
     <v>       0.00000000       0.00000000       2.95206776 </v>
    </varray>
    <i name="volume">     62.22065961 </i>
    <varray name="rec_basis" >
     <v>       0.21781905      -0.00000000       0.00000000 </v>
     <v>       0.00000000       0.21781905       0.00000000 </v>
     <v>      -0.00000000      -0.00000000       0.33874561 </v>
    </varray>
   </crystal>
   <varray name="positions" >
    <v>       0.69606687       0.69606687       0.50000000 </v>
    <v>       0.19606687       0.80393313       0.00000000 </v>
    <v>       0.80393313       0.19606687       0.00000000 </v>
    <v>       0.30393313       0.30393313       0.50000000 </v>
    <v>       0.50000000       0.50000000       0.00000000 </v>
    <v>       0.00000000       0.00000000       0.50000000 </v>
   </varray>
  </structure>
  <varray name="forces" >
   <v>      -0.00011092      -0.00011092      -0.00000000 </v>
   <v>      -0.00011092       0.00011092       0.00000000 </v>
   <v>       0.00011092      -0.00011092       0.00000000 </v>
   <v>       0.00011092       0.00011092       0.00000000 </v>
   <v>      -0.00000000       0.00000000       0.00000000 </v>
   <v>      -0.00000000       0.00000000       0.00000000 </v>
  </varray>
  <varray name="stress" >
   <v>      -2.74995253       0.00000000      -0.00000000 </v>
   <v>       0.00000000      -2.74995253      -0.00000000 </v>
   <v>      -0.00000000      -0.00000000      -2.53421766 </v>
  </varray>
  <energy>
   <i name="e_fr_energy">    -53.69748787 </i>
   <i name="e_wo_entrp">    -53.69748787 </i>
   <i name="e_0_energy">     -0.00000000 </i>
  </energy>
  <scstep>
   <time name="total">    1.04    1.04</time>
   <energy>
    <i name="e_fr_energy">   -228.48567032 </i>
    <i name="e_wo_entrp">   -228.48567032 </i>
    <i name="e_0_energy">   -228.48567032 </i>
   </energy>
  </scstep>
  <scstep>
   <time name="total">    1.24    1.25</time>
   <energy>
    <i name="e_fr_energy">   -188.58299785 </i>
    <i name="e_wo_entrp">   -188.58299785 </i>
    <i name="e_0_energy">   -188.58299785 </i>
   </energy>
  </scstep>
  <scstep>
   <time name="total">    1.25    1.25</time>
   <energy>
    <i name="e_fr_energy">   -189.91783971 </i>
    <i name="e_wo_entrp">   -189.91783971 </i>
    <i name="e_0_energy">   -189.91783971 </i>
   </energy>
  </scstep>
  <scstep>
   <time name="total">    1.08    1.11</time>
   <energy>
    <i name="e_fr_energy">   -190.18648974 </i>
    <i name="e_wo_entrp">   -190.18648974 </i>
    <i name="e_0_energy">   -190.18648974 </i>
   </energy>
  </scstep>
  <scstep>
   <time name="total">    1.12    1.12</time>
   <energy>
    <i name="e_fr_energy">   -190.22267795 </i>
    <i name="e_wo_entrp">   -190.22267795 </i>
    <i name="e_0_energy">   -190.22267795 </i>
   </energy>
  </scstep>
  <scstep>
   <time name="total">    1.11    1.11</time>
   <energy>
    <i name="e_fr_energy">   -190.22721904 </i>
    <i name="e_wo_entrp">   -190.22721904 </i>
    <i name="e_0_energy">   -190.22721904 </i>
   </energy>
  </scstep>
  <scstep>
   <time name="total">    2.06    2.06</time>
   <energy>
    <i name="e_fr_energy">   -190.22791877 </i>
    <i name="e_wo_entrp">   -190.22791877 </i>
    <i name="e_0_energy">   -190.22791877 </i>
   </energy>
  </scstep>
  <scstep>
   <time name="total">    1.11    1.11</time>
   <energy>
    <i name="e_fr_energy">   -190.22804302 </i>
    <i name="e_wo_entrp">   -190.22804302 </i>
    <i name="e_0_energy">   -190.22804302 </i>
   </energy>
  </scstep>
  <scstep>
   <time name="total">    1.11    1.11</time>
   <energy>
    <i name="e_fr_energy">   -190.22806735 </i>
    <i name="e_wo_entrp">   -190.22806735 </i>
    <i name="e_0_energy">   -190.22806735 </i>
   </energy>
  </scstep>
  <scstep>
   <time name="total">    1.11    1.12</time>
   <energy>
    <i name="e_fr_energy">   -190.22807219 </i>
    <i name="e_wo_entrp">   -190.22807219 </i>
    <i name="e_0_energy">   -190.22807219 </i>
   </energy>
  </scstep>
  <scstep>
   <time name="total">    1.11    1.11</time>
   <energy>
    <i name="e_fr_energy">   -190.22807351 </i>
    <i name="e_wo_entrp">   -190.22807351 </i>
    <i name="e_0_energy">   -190.22807351 </i>
   </energy>
  </scstep>
  <scstep>
   <time name="total">    1.11    1.13</time>
   <energy>
    <i name="e_fr_energy">   -190.22807382 </i>
    <i name="e_wo_entrp">   -190.22807382 </i>
    <i name="e_0_energy">   -190.22807382 </i>
   </energy>
  </scstep>
  <scstep>
   <time name="total">    1.11    1.11</time>
   <energy>
    <i name="e_fr_energy">   -190.22807396 </i>
    <i name="e_wo_entrp">   -190.22807396 </i>
    <i name="e_0_energy">   -190.22807396 </i>
   </energy>
  </scstep>
  <scstep>
   <time name="total">    1.11    1.11</time>
   <energy>
    <i name="e_fr_energy">   -190.22807395 </i>
    <i name="e_wo_entrp">   -190.22807395 </i>
    <i name="e_0_energy">   -190.22807395 </i>
   </energy>
  </scstep>
  <scstep>
   <time name="total">    1.12    1.12</time>
   <energy>
    <i name="e_fr_energy">   -190.22807401 </i>
    <i name="e_wo_entrp">   -190.22807401 </i>
    <i name="e_0_energy">   -190.22807401 </i>
   </energy>
  </scstep>
  <scstep>
   <time name="total">    1.11    1.11</time>
   <energy>
    <i name="e_fr_energy">   -190.22807403 </i>
    <i name="e_wo_entrp">   -190.22807403 </i>
    <i name="e_0_energy">   -190.22807403 </i>
   </energy>
  </scstep>
  <scstep>
   <time name="total">    1.11    1.11</time>
   <energy>
    <i name="e_fr_energy">   -190.22807393 </i>
    <i name="e_wo_entrp">   -190.22807393 </i>
    <i name="e_0_energy">   -190.22807393 </i>
   </energy>
  </scstep>
  <scstep>
   <time name="total">    1.11    1.11</time>
   <energy>
    <i name="e_fr_energy">   -190.22807400 </i>
    <i name="e_wo_entrp">   -190.22807400 </i>
    <i name="e_0_energy">   -190.22807400 </i>
   </energy>
  </scstep>
  <scstep>
   <time name="total">    1.03    1.03</time>
   <energy>
    <i name="e_fr_energy">   -232.89447362 </i>
    <i name="e_wo_entrp">   -232.89447362 </i>
    <i name="e_0_energy">   -232.89447362 </i>
   </energy>
  </scstep>
  <scstep>
   <time name="total">    1.23    1.23</time>
   <energy>
    <i name="e_fr_energy">   -187.91681083 </i>
    <i name="e_wo_entrp">   -187.91681083 </i>
    <i name="e_0_energy">   -187.91681083 </i>
   </energy>
  </scstep>
  <scstep>
   <time name="total">    1.24    1.24</time>
   <energy>
    <i name="e_fr_energy">   -189.20829570 </i>
    <i name="e_wo_entrp">   -189.20829570 </i>
    <i name="e_0_energy">   -189.20829570 </i>
   </energy>
  </scstep>
  <scstep>
   <time name="total">    1.11    1.11</time>
   <energy>
    <i name="e_fr_energy">   -189.49317838 </i>
    <i name="e_wo_entrp">   -189.49317838 </i>
    <i name="e_0_energy">   -189.49317838 </i>
   </energy>
  </scstep>
  <scstep>
   <time name="total">    1.11    1.11</time>
   <energy>
    <i name="e_fr_energy">   -189.53339148 </i>
    <i name="e_wo_entrp">   -189.53339148 </i>
    <i name="e_0_energy">   -189.53339148 </i>
   </energy>
  </scstep>
  <scstep>
   <time name="total">    1.11    1.11</time>
   <energy>
    <i name="e_fr_energy">   -189.53853581 </i>
    <i name="e_wo_entrp">   -189.53853581 </i>
    <i name="e_0_energy">   -189.53853581 </i>
   </energy>
  </scstep>
  <scstep>
   <time name="total">    1.11    1.15</time>
   <energy>
    <i name="e_fr_energy">   -189.53929967 </i>
    <i name="e_wo_entrp">   -189.53929967 </i>
    <i name="e_0_energy">   -189.53929967 </i>
   </energy>
  </scstep>
  <scstep>
   <time name="total">    1.11    1.11</time>
   <energy>
    <i name="e_fr_energy">   -189.53943239 </i>
    <i name="e_wo_entrp">   -189.53943239 </i>
    <i name="e_0_energy">   -189.53943239 </i>
   </energy>
  </scstep>
  <scstep>
   <time name="total">    1.11    1.11</time>
   <energy>
    <i name="e_fr_energy">   -189.53945876 </i>
    <i name="e_wo_entrp">   -189.53945876 </i>
    <i name="e_0_energy">   -189.53945876 </i>
   </energy>
  </scstep>
  <scstep>
   <time name="total">    1.11    1.11</time>
   <energy>
    <i name="e_fr_energy">   -189.53946510 </i>
    <i name="e_wo_entrp">   -189.53946510 </i>
    <i name="e_0_energy">   -189.53946510 </i>
   </energy>
  </scstep>
  <scstep>
   <time name="total">    1.10    1.11</time>
   <energy>
    <i name="e_fr_energy">   -189.53946659 </i>
    <i name="e_wo_entrp">   -189.53946659 </i>
    <i name="e_0_energy">   -189.53946659 </i>
   </energy>
  </scstep>
  <scstep>
   <time name="total">    1.11    1.11</time>
   <energy>
    <i name="e_fr_energy">   -189.53946718 </i>
    <i name="e_wo_entrp">   -189.53946718 </i>
    <i name="e_0_energy">   -189.53946718 </i>
   </energy>
  </scstep>
  <scstep>
   <time name="total">    1.10    1.10</time>
   <energy>
    <i name="e_fr_energy">   -189.53946724 </i>
    <i name="e_wo_entrp">   -189.53946724 </i>
    <i name="e_0_energy">   -189.53946724 </i>
   </energy>
  </scstep>
  <scstep>
   <time name="total">    1.11    1.11</time>
   <energy>
    <i name="e_fr_energy">   -189.53946728 </i>
    <i name="e_wo_entrp">   -189.53946728 </i>
    <i name="e_0_energy">   -189.53946728 </i>
   </energy>
  </scstep>
  <scstep>
   <time name="total">    1.13    1.13</time>
   <energy>
    <i name="e_fr_energy">   -189.53946727 </i>
    <i name="e_wo_entrp">   -189.53946727 </i>
    <i name="e_0_energy">   -189.53946727 </i>
   </energy>
  </scstep>
  <scstep>
   <time name="total">    1.60    1.60</time>
   <energy>
    <i name="e_fr_energy">   -189.53946732 </i>
    <i name="e_wo_entrp">   -189.53946732 </i>
    <i name="e_0_energy">   -189.53946732 </i>
   </energy>
  </scstep>
  <scstep>
   <time name="total">    1.11    1.11</time>
   <energy>
    <i name="e_fr_energy">   -189.53946726 </i>
    <i name="e_wo_entrp">   -189.53946726 </i>
    <i name="e_0_energy">   -189.53946726 </i>
   </energy>
  </scstep>
  <scstep>
   <time name="total">    1.11    1.11</time>
   <energy>
    <i name="e_fr_energy">   -189.53946737 </i>
    <i name="e_wo_entrp">   -189.53946737 </i>
    <i name="e_0_energy">   -189.53946737 </i>
   </energy>
  </scstep>
  <scstep>
   <time name="total">    1.05    1.05</time>
   <energy>
    <i name="e_fr_energy">   -149.74218116 </i>
    <i name="e_wo_entrp">   -149.74218116 </i>
    <i name="e_0_energy">   -149.74218116 </i>
   </energy>
  </scstep>
  <scstep>
   <time name="total">    1.22    1.22</time>
   <energy>
    <i name="e_fr_energy">   -189.57192822 </i>
    <i name="e_wo_entrp">   -189.57192822 </i>
    <i name="e_0_energy">   -189.57192822 </i>
   </energy>
  </scstep>
  <scstep>
   <time name="total">    1.24    1.25</time>
   <energy>
    <i name="e_fr_energy">   -190.89896381 </i>
    <i name="e_wo_entrp">   -190.89896381 </i>
    <i name="e_0_energy">   -190.89896381 </i>
   </energy>
  </scstep>
  <scstep>
   <time name="total">    1.11    1.11</time>
   <energy>
    <i name="e_fr_energy">   -191.13160352 </i>
    <i name="e_wo_entrp">   -191.13160352 </i>
    <i name="e_0_energy">   -191.13160352 </i>
   </energy>
  </scstep>
  <scstep>
   <time name="total">    1.11    1.11</time>
   <energy>
    <i name="e_fr_energy">   -191.16426729 </i>
    <i name="e_wo_entrp">   -191.16426729 </i>
    <i name="e_0_energy">   -191.16426729 </i>
   </energy>
  </scstep>
  <scstep>
   <time name="total">    1.11    1.14</time>
   <energy>
    <i name="e_fr_energy">   -191.16860949 </i>
    <i name="e_wo_entrp">   -191.16860949 </i>
    <i name="e_0_energy">   -191.16860949 </i>
   </energy>
  </scstep>
  <scstep>
   <time name="total">    1.11    1.11</time>
   <energy>
    <i name="e_fr_energy">   -191.16920350 </i>
    <i name="e_wo_entrp">   -191.16920350 </i>
    <i name="e_0_energy">   -191.16920350 </i>
   </energy>
  </scstep>
  <scstep>
   <time name="total">    1.11    1.11</time>
   <energy>
    <i name="e_fr_energy">   -191.16933793 </i>
    <i name="e_wo_entrp">   -191.16933793 </i>
    <i name="e_0_energy">   -191.16933793 </i>
   </energy>
  </scstep>
  <scstep>
   <time name="total">    1.11    1.11</time>
   <energy>
    <i name="e_fr_energy">   -191.16931365 </i>
    <i name="e_wo_entrp">   -191.16931365 </i>
    <i name="e_0_energy">   -191.16931365 </i>
   </energy>
  </scstep>
  <scstep>
   <time name="total">    1.11    1.11</time>
   <energy>
    <i name="e_fr_energy">   -191.16941506 </i>
    <i name="e_wo_entrp">   -191.16941506 </i>
    <i name="e_0_energy">   -191.16941506 </i>
   </energy>
  </scstep>
  <scstep>
   <time name="total">    1.11    1.11</time>
   <energy>
    <i name="e_fr_energy">   -191.16930582 </i>
    <i name="e_wo_entrp">   -191.16930582 </i>
    <i name="e_0_energy">   -191.16930582 </i>
   </energy>
  </scstep>
  <scstep>
   <time name="total">    1.11    1.11</time>
   <energy>
    <i name="e_fr_energy">   -191.16945325 </i>
    <i name="e_wo_entrp">   -191.16945325 </i>
    <i name="e_0_energy">   -191.16945325 </i>
   </energy>
  </scstep>
  <scstep>
   <time name="total">    1.11    1.12</time>
   <energy>
    <i name="e_fr_energy">   -191.16929700 </i>
    <i name="e_wo_entrp">   -191.16929700 </i>
    <i name="e_0_energy">   -191.16929700 </i>
   </energy>
  </scstep>
  <scstep>
   <time name="total">    1.11    1.11</time>
   <energy>
    <i name="e_fr_energy">   -191.16948033 </i>
    <i name="e_wo_entrp">   -191.16948033 </i>
    <i name="e_0_energy">   -191.16948033 </i>
   </energy>
  </scstep>
  <scstep>
   <time name="total">    1.11    1.11</time>
   <energy>
    <i name="e_fr_energy">   -191.16929160 </i>
    <i name="e_wo_entrp">   -191.16929160 </i>
    <i name="e_0_energy">   -191.16929160 </i>
   </energy>
  </scstep>
  <scstep>
   <time name="total">    1.11    1.11</time>
   <energy>
    <i name="e_fr_energy">   -191.16948807 </i>
    <i name="e_wo_entrp">   -191.16948807 </i>
    <i name="e_0_energy">   -191.16948807 </i>
   </energy>
  </scstep>
  <scstep>
   <time name="total">    1.12    1.12</time>
   <energy>
    <i name="e_fr_energy">   -191.16929175 </i>
    <i name="e_wo_entrp">   -191.16929175 </i>
    <i name="e_0_energy">   -191.16929175 </i>
   </energy>
  </scstep>
  <scstep>
   <time name="total">    1.87    1.87</time>
   <energy>
    <i name="e_fr_energy">     -1.05701975 </i>
    <i name="e_wo_entrp">     -1.05701975 </i>
    <i name="e_0_energy">     -1.05701975 </i>
   </energy>
  </scstep>
  <scstep>
   <time name="total">    1.95    1.95</time>
   <energy>
    <i name="e_fr_energy">     -1.17719395 </i>
    <i name="e_wo_entrp">     -1.17719395 </i>
    <i name="e_0_energy">     -1.17719395 </i>
   </energy>
  </scstep>
  <scstep>
   <time name="total">    1.97    1.97</time>
   <energy>
    <i name="e_fr_energy">     -1.18003453 </i>
    <i name="e_wo_entrp">     -1.18003453 </i>
    <i name="e_0_energy">     -1.18003453 </i>
   </energy>
  </scstep>
  <scstep>
   <time name="total">    4.03    4.03</time>
   <energy>
    <i name="e_fr_energy">     -1.18037240 </i>
    <i name="e_wo_entrp">     -1.18037240 </i>
    <i name="e_0_energy">     -1.18037240 </i>
   </energy>
  </scstep>
  <scstep>
   <time name="total">    1.96    1.95</time>
   <energy>
    <i name="e_fr_energy">     -1.18041860 </i>
    <i name="e_wo_entrp">     -1.18041860 </i>
    <i name="e_0_energy">     -1.18041860 </i>
   </energy>
  </scstep>
  <scstep>
   <time name="total">    1.95    1.95</time>
   <energy>
    <i name="e_fr_energy">     -1.18042381 </i>
    <i name="e_wo_entrp">     -1.18042381 </i>
    <i name="e_0_energy">     -1.18042381 </i>
   </energy>
  </scstep>
  <scstep>
   <time name="total">    1.95    1.96</time>
   <energy>
    <i name="e_fr_energy">     -1.18042434 </i>
    <i name="e_wo_entrp">     -1.18042434 </i>
    <i name="e_0_energy">     -1.18042434 </i>
   </energy>
  </scstep>
  <scstep>
   <time name="total">    1.95    2.03</time>
   <energy>
    <i name="e_fr_energy">     -1.18042441 </i>
    <i name="e_wo_entrp">     -1.18042441 </i>
    <i name="e_0_energy">     -1.18042441 </i>
   </energy>
  </scstep>
  <scstep>
   <time name="total">    1.95    1.95</time>
   <energy>
    <i name="e_fr_energy">     -1.18042441 </i>
    <i name="e_wo_entrp">     -1.18042441 </i>
    <i name="e_0_energy">     -1.18042441 </i>
   </energy>
  </scstep>
  <scstep>
   <time name="total">    1.89    1.89</time>
   <energy>
    <i name="e_fr_energy">     -0.98487848 </i>
    <i name="e_wo_entrp">     -0.98487848 </i>
    <i name="e_0_energy">     -0.98487848 </i>
   </energy>
  </scstep>
  <scstep>
   <time name="total">    1.94    1.94</time>
   <energy>
    <i name="e_fr_energy">     -1.09229719 </i>
    <i name="e_wo_entrp">     -1.09229719 </i>
    <i name="e_0_energy">     -1.09229719 </i>
   </energy>
  </scstep>
  <scstep>
   <time name="total">    1.95    1.95</time>
   <energy>
    <i name="e_fr_energy">     -1.09504527 </i>
    <i name="e_wo_entrp">     -1.09504527 </i>
    <i name="e_0_energy">     -1.09504527 </i>
   </energy>
  </scstep>
  <scstep>
   <time name="total">    1.95    1.95</time>
   <energy>
    <i name="e_fr_energy">     -1.09540407 </i>
    <i name="e_wo_entrp">     -1.09540407 </i>
    <i name="e_0_energy">     -1.09540407 </i>
   </energy>
  </scstep>
  <scstep>
   <time name="total">    1.95    1.95</time>
   <energy>
    <i name="e_fr_energy">     -1.09545395 </i>
    <i name="e_wo_entrp">     -1.09545395 </i>
    <i name="e_0_energy">     -1.09545395 </i>
   </energy>
  </scstep>
  <scstep>
   <time name="total">    1.96    1.98</time>
   <energy>
    <i name="e_fr_energy">     -1.09545942 </i>
    <i name="e_wo_entrp">     -1.09545942 </i>
    <i name="e_0_energy">     -1.09545942 </i>
   </energy>
  </scstep>
  <scstep>
   <time name="total">    1.95    1.95</time>
   <energy>
    <i name="e_fr_energy">     -1.09545997 </i>
    <i name="e_wo_entrp">     -1.09545997 </i>
    <i name="e_0_energy">     -1.09545997 </i>
   </energy>
  </scstep>
  <scstep>
   <time name="total">    1.97    1.97</time>
   <energy>
    <i name="e_fr_energy">     -1.09546003 </i>
    <i name="e_wo_entrp">     -1.09546003 </i>
    <i name="e_0_energy">     -1.09546003 </i>
   </energy>
  </scstep>
  <scstep>
   <time name="total">    1.95    1.95</time>
   <energy>
    <i name="e_fr_energy">     -1.09546004 </i>
    <i name="e_wo_entrp">     -1.09546004 </i>
    <i name="e_0_energy">     -1.09546004 </i>
   </energy>
  </scstep>
  <scstep>
   <time name="total">    2.47    2.47</time>
   <energy>
    <i name="e_fr_energy">     -1.20211930 </i>
    <i name="e_wo_entrp">     -1.20211930 </i>
    <i name="e_0_energy">     -1.20211930 </i>
   </energy>
  </scstep>
  <scstep>
   <time name="total">    2.18    2.18</time>
   <energy>
    <i name="e_fr_energy">     -1.35231890 </i>
    <i name="e_wo_entrp">     -1.35231890 </i>
    <i name="e_0_energy">     -1.35231890 </i>
   </energy>
  </scstep>
  <scstep>
   <time name="total">    1.95    1.95</time>
   <energy>
    <i name="e_fr_energy">     -1.35605241 </i>
    <i name="e_wo_entrp">     -1.35605241 </i>
    <i name="e_0_energy">     -1.35605241 </i>
   </energy>
  </scstep>
  <scstep>
   <time name="total">    1.95    1.95</time>
   <energy>
    <i name="e_fr_energy">     -1.35650079 </i>
    <i name="e_wo_entrp">     -1.35650079 </i>
    <i name="e_0_energy">     -1.35650079 </i>
   </energy>
  </scstep>
  <scstep>
   <time name="total">    1.95    1.95</time>
   <energy>
    <i name="e_fr_energy">     -1.35655430 </i>
    <i name="e_wo_entrp">     -1.35655430 </i>
    <i name="e_0_energy">     -1.35655430 </i>
   </energy>
  </scstep>
  <scstep>
   <time name="total">    1.94    1.94</time>
   <energy>
    <i name="e_fr_energy">     -1.35655942 </i>
    <i name="e_wo_entrp">     -1.35655942 </i>
    <i name="e_0_energy">     -1.35655942 </i>
   </energy>
  </scstep>
  <scstep>
   <time name="total">    1.95    1.95</time>
   <energy>
    <i name="e_fr_energy">     -1.35655989 </i>
    <i name="e_wo_entrp">     -1.35655989 </i>
    <i name="e_0_energy">     -1.35655989 </i>
   </energy>
  </scstep>
  <scstep>
   <time name="total">    1.96    1.96</time>
   <energy>
    <i name="e_fr_energy">     -1.35655994 </i>
    <i name="e_wo_entrp">     -1.35655994 </i>
    <i name="e_0_energy">     -1.35655994 </i>
   </energy>
  </scstep>
  <scstep>
   <time name="total">    1.95    1.95</time>
   <energy>
    <i name="e_fr_energy">     -1.35655994 </i>
    <i name="e_wo_entrp">     -1.35655994 </i>
    <i name="e_0_energy">     -1.35655994 </i>
   </energy>
  </scstep>
  <varray name="epsilon_rpa" >
   <v>       7.61883382       0.00000000       0.00000000 </v>
   <v>       0.00000000       7.61883382       0.00000000 </v>
   <v>       0.00000000       0.00000000       8.89042257 </v>
  </varray>
  <kpoints>
   <generation param="Gamma">
    <v type="int" name="divisions">       9        9       14 </v>
    <v name="usershift">      0.00000000       0.00000000       0.00000000 </v>
    <v name="genvec1">      0.11111111       0.00000000       0.00000000 </v>
    <v name="genvec2">      0.00000000       0.11111111       0.00000000 </v>
    <v name="genvec3">      0.00000000      -0.00000000       0.07142857 </v>
    <v name="shift">      0.00000000       0.00000000       0.00000000 </v>
   </generation>
   <varray name="kpointlist" >
    <v>       0.00000000       0.00000000       0.00000000 </v>
    <v>       0.11111111       0.00000000       0.00000000 </v>
    <v>       0.22222222       0.00000000       0.00000000 </v>
    <v>       0.33333333       0.00000000       0.00000000 </v>
    <v>       0.44444444       0.00000000       0.00000000 </v>
    <v>       0.00000000       0.11111111       0.00000000 </v>
    <v>       0.11111111       0.11111111       0.00000000 </v>
    <v>       0.22222222       0.11111111       0.00000000 </v>
    <v>       0.33333333       0.11111111       0.00000000 </v>
    <v>       0.44444444       0.11111111       0.00000000 </v>
    <v>       0.00000000       0.22222222       0.00000000 </v>
    <v>       0.11111111       0.22222222       0.00000000 </v>
    <v>       0.22222222       0.22222222       0.00000000 </v>
    <v>       0.33333333       0.22222222       0.00000000 </v>
    <v>       0.44444444       0.22222222       0.00000000 </v>
    <v>       0.00000000       0.33333333       0.00000000 </v>
    <v>       0.11111111       0.33333333       0.00000000 </v>
    <v>       0.22222222       0.33333333       0.00000000 </v>
    <v>       0.33333333       0.33333333       0.00000000 </v>
    <v>       0.44444444       0.33333333       0.00000000 </v>
    <v>       0.00000000       0.44444444       0.00000000 </v>
    <v>       0.11111111       0.44444444       0.00000000 </v>
    <v>       0.22222222       0.44444444       0.00000000 </v>
    <v>       0.33333333       0.44444444       0.00000000 </v>
    <v>       0.44444444       0.44444444       0.00000000 </v>
    <v>       0.00000000       0.00000000       0.07142857 </v>
    <v>       0.11111111       0.00000000       0.07142857 </v>
    <v>       0.22222222       0.00000000       0.07142857 </v>
    <v>       0.33333333       0.00000000       0.07142857 </v>
    <v>       0.44444444       0.00000000       0.07142857 </v>
    <v>       0.00000000       0.11111111       0.07142857 </v>
    <v>       0.11111111       0.11111111       0.07142857 </v>
    <v>       0.22222222       0.11111111       0.07142857 </v>
    <v>       0.33333333       0.11111111       0.07142857 </v>
    <v>       0.44444444       0.11111111       0.07142857 </v>
    <v>       0.00000000       0.22222222       0.07142857 </v>
    <v>       0.11111111       0.22222222       0.07142857 </v>
    <v>       0.22222222       0.22222222       0.07142857 </v>
    <v>       0.33333333       0.22222222       0.07142857 </v>
    <v>       0.44444444       0.22222222       0.07142857 </v>
    <v>       0.00000000       0.33333333       0.07142857 </v>
    <v>       0.11111111       0.33333333       0.07142857 </v>
    <v>       0.22222222       0.33333333       0.07142857 </v>
    <v>       0.33333333       0.33333333       0.07142857 </v>
    <v>       0.44444444       0.33333333       0.07142857 </v>
    <v>       0.00000000       0.44444444       0.07142857 </v>
    <v>       0.11111111       0.44444444       0.07142857 </v>
    <v>       0.22222222       0.44444444       0.07142857 </v>
    <v>       0.33333333       0.44444444       0.07142857 </v>
    <v>       0.44444444       0.44444444       0.07142857 </v>
    <v>       0.00000000       0.00000000       0.14285714 </v>
    <v>       0.11111111       0.00000000       0.14285714 </v>
    <v>       0.22222222       0.00000000       0.14285714 </v>
    <v>       0.33333333       0.00000000       0.14285714 </v>
    <v>       0.44444444       0.00000000       0.14285714 </v>
    <v>       0.00000000       0.11111111       0.14285714 </v>
    <v>       0.11111111       0.11111111       0.14285714 </v>
    <v>       0.22222222       0.11111111       0.14285714 </v>
    <v>       0.33333333       0.11111111       0.14285714 </v>
    <v>       0.44444444       0.11111111       0.14285714 </v>
    <v>       0.00000000       0.22222222       0.14285714 </v>
    <v>       0.11111111       0.22222222       0.14285714 </v>
    <v>       0.22222222       0.22222222       0.14285714 </v>
    <v>       0.33333333       0.22222222       0.14285714 </v>
    <v>       0.44444444       0.22222222       0.14285714 </v>
    <v>       0.00000000       0.33333333       0.14285714 </v>
    <v>       0.11111111       0.33333333       0.14285714 </v>
    <v>       0.22222222       0.33333333       0.14285714 </v>
    <v>       0.33333333       0.33333333       0.14285714 </v>
    <v>       0.44444444       0.33333333       0.14285714 </v>
    <v>       0.00000000       0.44444444       0.14285714 </v>
    <v>       0.11111111       0.44444444       0.14285714 </v>
    <v>       0.22222222       0.44444444       0.14285714 </v>
    <v>       0.33333333       0.44444444       0.14285714 </v>
    <v>       0.44444444       0.44444444       0.14285714 </v>
    <v>       0.00000000       0.00000000       0.21428571 </v>
    <v>       0.11111111       0.00000000       0.21428571 </v>
    <v>       0.22222222       0.00000000       0.21428571 </v>
    <v>       0.33333333       0.00000000       0.21428571 </v>
    <v>       0.44444444       0.00000000       0.21428571 </v>
    <v>       0.00000000       0.11111111       0.21428571 </v>
    <v>       0.11111111       0.11111111       0.21428571 </v>
    <v>       0.22222222       0.11111111       0.21428571 </v>
    <v>       0.33333333       0.11111111       0.21428571 </v>
    <v>       0.44444444       0.11111111       0.21428571 </v>
    <v>       0.00000000       0.22222222       0.21428571 </v>
    <v>       0.11111111       0.22222222       0.21428571 </v>
    <v>       0.22222222       0.22222222       0.21428571 </v>
    <v>       0.33333333       0.22222222       0.21428571 </v>
    <v>       0.44444444       0.22222222       0.21428571 </v>
    <v>       0.00000000       0.33333333       0.21428571 </v>
    <v>       0.11111111       0.33333333       0.21428571 </v>
    <v>       0.22222222       0.33333333       0.21428571 </v>
    <v>       0.33333333       0.33333333       0.21428571 </v>
    <v>       0.44444444       0.33333333       0.21428571 </v>
    <v>       0.00000000       0.44444444       0.21428571 </v>
    <v>       0.11111111       0.44444444       0.21428571 </v>
    <v>       0.22222222       0.44444444       0.21428571 </v>
    <v>       0.33333333       0.44444444       0.21428571 </v>
    <v>       0.44444444       0.44444444       0.21428571 </v>
    <v>       0.00000000       0.00000000       0.28571429 </v>
    <v>       0.11111111       0.00000000       0.28571429 </v>
    <v>       0.22222222       0.00000000       0.28571429 </v>
    <v>       0.33333333       0.00000000       0.28571429 </v>
    <v>       0.44444444       0.00000000       0.28571429 </v>
    <v>       0.00000000       0.11111111       0.28571429 </v>
    <v>       0.11111111       0.11111111       0.28571429 </v>
    <v>       0.22222222       0.11111111       0.28571429 </v>
    <v>       0.33333333       0.11111111       0.28571429 </v>
    <v>       0.44444444       0.11111111       0.28571429 </v>
    <v>       0.00000000       0.22222222       0.28571429 </v>
    <v>       0.11111111       0.22222222       0.28571429 </v>
    <v>       0.22222222       0.22222222       0.28571429 </v>
    <v>       0.33333333       0.22222222       0.28571429 </v>
    <v>       0.44444444       0.22222222       0.28571429 </v>
    <v>       0.00000000       0.33333333       0.28571429 </v>
    <v>       0.11111111       0.33333333       0.28571429 </v>
    <v>       0.22222222       0.33333333       0.28571429 </v>
    <v>       0.33333333       0.33333333       0.28571429 </v>
    <v>       0.44444444       0.33333333       0.28571429 </v>
    <v>       0.00000000       0.44444444       0.28571429 </v>
    <v>       0.11111111       0.44444444       0.28571429 </v>
    <v>       0.22222222       0.44444444       0.28571429 </v>
    <v>       0.33333333       0.44444444       0.28571429 </v>
    <v>       0.44444444       0.44444444       0.28571429 </v>
    <v>      -0.00000000       0.00000000       0.35714286 </v>
    <v>       0.11111111       0.00000000       0.35714286 </v>
    <v>       0.22222222       0.00000000       0.35714286 </v>
    <v>       0.33333333       0.00000000       0.35714286 </v>
    <v>       0.44444444       0.00000000       0.35714286 </v>
    <v>      -0.00000000       0.11111111       0.35714286 </v>
    <v>       0.11111111       0.11111111       0.35714286 </v>
    <v>       0.22222222       0.11111111       0.35714286 </v>
    <v>       0.33333333       0.11111111       0.35714286 </v>
    <v>       0.44444444       0.11111111       0.35714286 </v>
    <v>      -0.00000000       0.22222222       0.35714286 </v>
    <v>       0.11111111       0.22222222       0.35714286 </v>
    <v>       0.22222222       0.22222222       0.35714286 </v>
    <v>       0.33333333       0.22222222       0.35714286 </v>
    <v>       0.44444444       0.22222222       0.35714286 </v>
    <v>      -0.00000000       0.33333333       0.35714286 </v>
    <v>       0.11111111       0.33333333       0.35714286 </v>
    <v>       0.22222222       0.33333333       0.35714286 </v>
    <v>       0.33333333       0.33333333       0.35714286 </v>
    <v>       0.44444444       0.33333333       0.35714286 </v>
    <v>      -0.00000000       0.44444444       0.35714286 </v>
    <v>       0.11111111       0.44444444       0.35714286 </v>
    <v>       0.22222222       0.44444444       0.35714286 </v>
    <v>       0.33333333       0.44444444       0.35714286 </v>
    <v>       0.44444444       0.44444444       0.35714286 </v>
    <v>       0.00000000       0.00000000       0.42857143 </v>
    <v>       0.11111111       0.00000000       0.42857143 </v>
    <v>       0.22222222       0.00000000       0.42857143 </v>
    <v>       0.33333333       0.00000000       0.42857143 </v>
    <v>       0.44444444       0.00000000       0.42857143 </v>
    <v>       0.00000000       0.11111111       0.42857143 </v>
    <v>       0.11111111       0.11111111       0.42857143 </v>
    <v>       0.22222222       0.11111111       0.42857143 </v>
    <v>       0.33333333       0.11111111       0.42857143 </v>
    <v>       0.44444444       0.11111111       0.42857143 </v>
    <v>       0.00000000       0.22222222       0.42857143 </v>
    <v>       0.11111111       0.22222222       0.42857143 </v>
    <v>       0.22222222       0.22222222       0.42857143 </v>
    <v>       0.33333333       0.22222222       0.42857143 </v>
    <v>       0.44444444       0.22222222       0.42857143 </v>
    <v>       0.00000000       0.33333333       0.42857143 </v>
    <v>       0.11111111       0.33333333       0.42857143 </v>
    <v>       0.22222222       0.33333333       0.42857143 </v>
    <v>       0.33333333       0.33333333       0.42857143 </v>
    <v>       0.44444444       0.33333333       0.42857143 </v>
    <v>       0.00000000       0.44444444       0.42857143 </v>
    <v>       0.11111111       0.44444444       0.42857143 </v>
    <v>       0.22222222       0.44444444       0.42857143 </v>
    <v>       0.33333333       0.44444444       0.42857143 </v>
    <v>       0.44444444       0.44444444       0.42857143 </v>
    <v>       0.00000000       0.00000000       0.50000000 </v>
    <v>       0.11111111       0.00000000       0.50000000 </v>
    <v>       0.22222222       0.00000000       0.50000000 </v>
    <v>       0.33333333       0.00000000       0.50000000 </v>
    <v>       0.44444444       0.00000000       0.50000000 </v>
    <v>       0.00000000       0.11111111       0.50000000 </v>
    <v>       0.11111111       0.11111111       0.50000000 </v>
    <v>       0.22222222       0.11111111       0.50000000 </v>
    <v>       0.33333333       0.11111111       0.50000000 </v>
    <v>       0.44444444       0.11111111       0.50000000 </v>
    <v>       0.00000000       0.22222222       0.50000000 </v>
    <v>       0.11111111       0.22222222       0.50000000 </v>
    <v>       0.22222222       0.22222222       0.50000000 </v>
    <v>       0.33333333       0.22222222       0.50000000 </v>
    <v>       0.44444444       0.22222222       0.50000000 </v>
    <v>       0.00000000       0.33333333       0.50000000 </v>
    <v>       0.11111111       0.33333333       0.50000000 </v>
    <v>       0.22222222       0.33333333       0.50000000 </v>
    <v>       0.33333333       0.33333333       0.50000000 </v>
    <v>       0.44444444       0.33333333       0.50000000 </v>
    <v>       0.00000000       0.44444444       0.50000000 </v>
    <v>       0.11111111       0.44444444       0.50000000 </v>
    <v>       0.22222222       0.44444444       0.50000000 </v>
    <v>       0.33333333       0.44444444       0.50000000 </v>
    <v>       0.44444444       0.44444444       0.50000000 </v>
   </varray>
   <varray name="weights" >
    <v>       0.00088183 </v>
    <v>       0.00176367 </v>
    <v>       0.00176367 </v>
    <v>       0.00176367 </v>
    <v>       0.00176367 </v>
    <v>       0.00176367 </v>
    <v>       0.00352734 </v>
    <v>       0.00352734 </v>
    <v>       0.00352734 </v>
    <v>       0.00352734 </v>
    <v>       0.00176367 </v>
    <v>       0.00352734 </v>
    <v>       0.00352734 </v>
    <v>       0.00352734 </v>
    <v>       0.00352734 </v>
    <v>       0.00176367 </v>
    <v>       0.00352734 </v>
    <v>       0.00352734 </v>
    <v>       0.00352734 </v>
    <v>       0.00352734 </v>
    <v>       0.00176367 </v>
    <v>       0.00352734 </v>
    <v>       0.00352734 </v>
    <v>       0.00352734 </v>
    <v>       0.00352734 </v>
    <v>       0.00176367 </v>
    <v>       0.00352734 </v>
    <v>       0.00352734 </v>
    <v>       0.00352734 </v>
    <v>       0.00352734 </v>
    <v>       0.00352734 </v>
    <v>       0.00705467 </v>
    <v>       0.00705467 </v>
    <v>       0.00705467 </v>
    <v>       0.00705467 </v>
    <v>       0.00352734 </v>
    <v>       0.00705467 </v>
    <v>       0.00705467 </v>
    <v>       0.00705467 </v>
    <v>       0.00705467 </v>
    <v>       0.00352734 </v>
    <v>       0.00705467 </v>
    <v>       0.00705467 </v>
    <v>       0.00705467 </v>
    <v>       0.00705467 </v>
    <v>       0.00352734 </v>
    <v>       0.00705467 </v>
    <v>       0.00705467 </v>
    <v>       0.00705467 </v>
    <v>       0.00705467 </v>
    <v>       0.00176367 </v>
    <v>       0.00352734 </v>
    <v>       0.00352734 </v>
    <v>       0.00352734 </v>
    <v>       0.00352734 </v>
    <v>       0.00352734 </v>
    <v>       0.00705467 </v>
    <v>       0.00705467 </v>
    <v>       0.00705467 </v>
    <v>       0.00705467 </v>
    <v>       0.00352734 </v>
    <v>       0.00705467 </v>
    <v>       0.00705467 </v>
    <v>       0.00705467 </v>
    <v>       0.00705467 </v>
    <v>       0.00352734 </v>
    <v>       0.00705467 </v>
    <v>       0.00705467 </v>
    <v>       0.00705467 </v>
    <v>       0.00705467 </v>
    <v>       0.00352734 </v>
    <v>       0.00705467 </v>
    <v>       0.00705467 </v>
    <v>       0.00705467 </v>
    <v>       0.00705467 </v>
    <v>       0.00176367 </v>
    <v>       0.00352734 </v>
    <v>       0.00352734 </v>
    <v>       0.00352734 </v>
    <v>       0.00352734 </v>
    <v>       0.00352734 </v>
    <v>       0.00705467 </v>
    <v>       0.00705467 </v>
    <v>       0.00705467 </v>
    <v>       0.00705467 </v>
    <v>       0.00352734 </v>
    <v>       0.00705467 </v>
    <v>       0.00705467 </v>
    <v>       0.00705467 </v>
    <v>       0.00705467 </v>
    <v>       0.00352734 </v>
    <v>       0.00705467 </v>
    <v>       0.00705467 </v>
    <v>       0.00705467 </v>
    <v>       0.00705467 </v>
    <v>       0.00352734 </v>
    <v>       0.00705467 </v>
    <v>       0.00705467 </v>
    <v>       0.00705467 </v>
    <v>       0.00705467 </v>
    <v>       0.00176367 </v>
    <v>       0.00352734 </v>
    <v>       0.00352734 </v>
    <v>       0.00352734 </v>
    <v>       0.00352734 </v>
    <v>       0.00352734 </v>
    <v>       0.00705467 </v>
    <v>       0.00705467 </v>
    <v>       0.00705467 </v>
    <v>       0.00705467 </v>
    <v>       0.00352734 </v>
    <v>       0.00705467 </v>
    <v>       0.00705467 </v>
    <v>       0.00705467 </v>
    <v>       0.00705467 </v>
    <v>       0.00352734 </v>
    <v>       0.00705467 </v>
    <v>       0.00705467 </v>
    <v>       0.00705467 </v>
    <v>       0.00705467 </v>
    <v>       0.00352734 </v>
    <v>       0.00705467 </v>
    <v>       0.00705467 </v>
    <v>       0.00705467 </v>
    <v>       0.00705467 </v>
    <v>       0.00176367 </v>
    <v>       0.00352734 </v>
    <v>       0.00352734 </v>
    <v>       0.00352734 </v>
    <v>       0.00352734 </v>
    <v>       0.00352734 </v>
    <v>       0.00705467 </v>
    <v>       0.00705467 </v>
    <v>       0.00705467 </v>
    <v>       0.00705467 </v>
    <v>       0.00352734 </v>
    <v>       0.00705467 </v>
    <v>       0.00705467 </v>
    <v>       0.00705467 </v>
    <v>       0.00705467 </v>
    <v>       0.00352734 </v>
    <v>       0.00705467 </v>
    <v>       0.00705467 </v>
    <v>       0.00705467 </v>
    <v>       0.00705467 </v>
    <v>       0.00352734 </v>
    <v>       0.00705467 </v>
    <v>       0.00705467 </v>
    <v>       0.00705467 </v>
    <v>       0.00705467 </v>
    <v>       0.00176367 </v>
    <v>       0.00352734 </v>
    <v>       0.00352734 </v>
    <v>       0.00352734 </v>
    <v>       0.00352734 </v>
    <v>       0.00352734 </v>
    <v>       0.00705467 </v>
    <v>       0.00705467 </v>
    <v>       0.00705467 </v>
    <v>       0.00705467 </v>
    <v>       0.00352734 </v>
    <v>       0.00705467 </v>
    <v>       0.00705467 </v>
    <v>       0.00705467 </v>
    <v>       0.00705467 </v>
    <v>       0.00352734 </v>
    <v>       0.00705467 </v>
    <v>       0.00705467 </v>
    <v>       0.00705467 </v>
    <v>       0.00705467 </v>
    <v>       0.00352734 </v>
    <v>       0.00705467 </v>
    <v>       0.00705467 </v>
    <v>       0.00705467 </v>
    <v>       0.00705467 </v>
    <v>       0.00088183 </v>
    <v>       0.00176367 </v>
    <v>       0.00176367 </v>
    <v>       0.00176367 </v>
    <v>       0.00176367 </v>
    <v>       0.00176367 </v>
    <v>       0.00352734 </v>
    <v>       0.00352734 </v>
    <v>       0.00352734 </v>
    <v>       0.00352734 </v>
    <v>       0.00176367 </v>
    <v>       0.00352734 </v>
    <v>       0.00352734 </v>
    <v>       0.00352734 </v>
    <v>       0.00352734 </v>
    <v>       0.00176367 </v>
    <v>       0.00352734 </v>
    <v>       0.00352734 </v>
    <v>       0.00352734 </v>
    <v>       0.00352734 </v>
    <v>       0.00176367 </v>
    <v>       0.00352734 </v>
    <v>       0.00352734 </v>
    <v>       0.00352734 </v>
    <v>       0.00352734 </v>
   </varray>
  </kpoints>
  <scstep>
   <time name="total">    3.11    3.11</time>
   <energy>
    <i name="e_fr_energy">     -1.02094912 </i>
    <i name="e_wo_entrp">     -1.02094912 </i>
    <i name="e_0_energy">     -1.02094912 </i>
   </energy>
  </scstep>
  <scstep>
   <time name="total">    3.33    3.33</time>
   <energy>
    <i name="e_fr_energy">     -1.13474506 </i>
    <i name="e_wo_entrp">     -1.13474506 </i>
    <i name="e_0_energy">     -1.13474506 </i>
   </energy>
  </scstep>
  <scstep>
   <time name="total">    3.34    3.34</time>
   <energy>
    <i name="e_fr_energy">     -1.11913391 </i>
    <i name="e_wo_entrp">     -1.11913391 </i>
    <i name="e_0_energy">     -1.11913391 </i>
   </energy>
  </scstep>
  <scstep>
   <time name="total">    4.08    4.07</time>
   <energy>
    <i name="e_fr_energy">     -1.12113793 </i>
    <i name="e_wo_entrp">     -1.12113793 </i>
    <i name="e_0_energy">     -1.12113793 </i>
   </energy>
  </scstep>
  <scstep>
   <time name="total">    3.34    3.34</time>
   <energy>
    <i name="e_fr_energy">     -1.14752183 </i>
    <i name="e_wo_entrp">     -1.14752183 </i>
    <i name="e_0_energy">     -1.14752183 </i>
   </energy>
  </scstep>
  <scstep>
   <time name="total">    3.35    3.37</time>
   <energy>
    <i name="e_fr_energy">     -1.15387381 </i>
    <i name="e_wo_entrp">     -1.15387381 </i>
    <i name="e_0_energy">     -1.15387381 </i>
   </energy>
  </scstep>
  <scstep>
   <time name="total">    3.34    3.34</time>
   <energy>
    <i name="e_fr_energy">     -1.15454484 </i>
    <i name="e_wo_entrp">     -1.15454484 </i>
    <i name="e_0_energy">     -1.15454484 </i>
   </energy>
  </scstep>
  <scstep>
   <time name="total">    3.34    3.34</time>
   <energy>
    <i name="e_fr_energy">     -1.15490930 </i>
    <i name="e_wo_entrp">     -1.15490930 </i>
    <i name="e_0_energy">     -1.15490930 </i>
   </energy>
  </scstep>
  <scstep>
   <time name="total">    3.34    3.34</time>
   <energy>
    <i name="e_fr_energy">     -1.15499049 </i>
    <i name="e_wo_entrp">     -1.15499049 </i>
    <i name="e_0_energy">     -1.15499049 </i>
   </energy>
  </scstep>
  <scstep>
   <time name="total">    3.35    3.35</time>
   <energy>
    <i name="e_fr_energy">     -1.15500990 </i>
    <i name="e_wo_entrp">     -1.15500990 </i>
    <i name="e_0_energy">     -1.15500990 </i>
   </energy>
  </scstep>
  <scstep>
   <time name="total">    3.34    3.34</time>
   <energy>
    <i name="e_fr_energy">     -1.15501290 </i>
    <i name="e_wo_entrp">     -1.15501290 </i>
    <i name="e_0_energy">     -1.15501290 </i>
   </energy>
  </scstep>
  <scstep>
   <time name="total">    4.04    4.03</time>
   <energy>
    <i name="e_fr_energy">     -1.15501072 </i>
    <i name="e_wo_entrp">     -1.15501072 </i>
    <i name="e_0_energy">     -1.15501072 </i>
   </energy>
  </scstep>
  <scstep>
   <time name="total">    3.36    3.36</time>
   <energy>
    <i name="e_fr_energy">     -1.15501057 </i>
    <i name="e_wo_entrp">     -1.15501057 </i>
    <i name="e_0_energy">     -1.15501057 </i>
   </energy>
  </scstep>
  <kpoints>
   <generation param="Gamma">
    <v type="int" name="divisions">       9        9       14 </v>
    <v name="usershift">      0.00000000       0.00000000       0.00000000 </v>
    <v name="genvec1">      0.11111111       0.00000000       0.00000000 </v>
    <v name="genvec2">      0.00000000       0.11111111       0.00000000 </v>
    <v name="genvec3">      0.00000000      -0.00000000       0.07142857 </v>
    <v name="shift">      0.00000000       0.00000000       0.00000000 </v>
   </generation>
   <varray name="kpointlist" >
    <v>       0.00000000       0.00000000       0.00000000 </v>
    <v>       0.11111111       0.00000000       0.00000000 </v>
    <v>       0.22222222       0.00000000       0.00000000 </v>
    <v>       0.33333333       0.00000000       0.00000000 </v>
    <v>       0.44444444       0.00000000       0.00000000 </v>
    <v>       0.00000000       0.11111111       0.00000000 </v>
    <v>       0.11111111       0.11111111       0.00000000 </v>
    <v>       0.22222222       0.11111111       0.00000000 </v>
    <v>       0.33333333       0.11111111       0.00000000 </v>
    <v>       0.44444444       0.11111111       0.00000000 </v>
    <v>       0.00000000       0.22222222       0.00000000 </v>
    <v>       0.11111111       0.22222222       0.00000000 </v>
    <v>       0.22222222       0.22222222       0.00000000 </v>
    <v>       0.33333333       0.22222222       0.00000000 </v>
    <v>       0.44444444       0.22222222       0.00000000 </v>
    <v>       0.00000000       0.33333333       0.00000000 </v>
    <v>       0.11111111       0.33333333       0.00000000 </v>
    <v>       0.22222222       0.33333333       0.00000000 </v>
    <v>       0.33333333       0.33333333       0.00000000 </v>
    <v>       0.44444444       0.33333333       0.00000000 </v>
    <v>       0.00000000       0.44444444       0.00000000 </v>
    <v>       0.11111111       0.44444444       0.00000000 </v>
    <v>       0.22222222       0.44444444       0.00000000 </v>
    <v>       0.33333333       0.44444444       0.00000000 </v>
    <v>       0.44444444       0.44444444       0.00000000 </v>
    <v>       0.00000000       0.00000000       0.07142857 </v>
[...]
       <r>   25.3544    0.0000 </r>
       <r>   27.0061    0.0000 </r>
       <r>   28.9461    0.0000 </r>
      </set>
      <set comment="kpoint 119">
       <r>  -51.9756    1.0000 </r>
       <r>  -51.9756    1.0000 </r>
       <r>  -28.5766    1.0000 </r>
       <r>  -28.5738    1.0000 </r>
       <r>  -28.2030    1.0000 </r>
       <r>  -28.1995    1.0000 </r>
       <r>  -28.1824    1.0000 </r>
       <r>  -28.1820    1.0000 </r>
       <r>  -12.1609    1.0000 </r>
       <r>  -12.0758    1.0000 </r>
       <r>  -11.7257    1.0000 </r>
       <r>  -11.6357    1.0000 </r>
       <r>   -0.1027    1.0000 </r>
       <r>    0.0736    1.0000 </r>
       <r>    0.5132    1.0000 </r>
       <r>    0.5919    1.0000 </r>
       <r>    1.2277    1.0000 </r>
       <r>    1.4984    1.0000 </r>
       <r>    2.1519    1.0000 </r>
       <r>    2.2026    1.0000 </r>
       <r>    3.4318    1.0000 </r>
       <r>    3.5149    1.0000 </r>
       <r>    4.0343    1.0000 </r>
       <r>    4.1265    1.0000 </r>
       <r>    7.1115    0.0000 </r>
       <r>    7.3648    0.0000 </r>
       <r>    8.0992    0.0000 </r>
       <r>    8.1047    0.0000 </r>
       <r>    8.2283    0.0000 </r>
       <r>    8.4836    0.0000 </r>
       <r>   10.1640    0.0000 </r>
       <r>   10.4954    0.0000 </r>
       <r>   11.2555    0.0000 </r>
       <r>   11.5940    0.0000 </r>
       <r>   16.6969    0.0000 </r>
       <r>   16.9427    0.0000 </r>
       <r>   18.5202    0.0000 </r>
       <r>   19.0987    0.0000 </r>
       <r>   20.1278    0.0000 </r>
       <r>   20.5885    0.0000 </r>
       <r>   22.1421    0.0000 </r>
       <r>   22.2069    0.0000 </r>
       <r>   23.3257    0.0000 </r>
       <r>   23.6220    0.0000 </r>
       <r>   24.3889    0.0000 </r>
       <r>   24.8651    0.0000 </r>
       <r>   27.8374    0.0000 </r>
       <r>   28.6190    0.0000 </r>
      </set>
      <set comment="kpoint 120">
       <r>  -51.9755    1.0000 </r>
       <r>  -51.9755    1.0000 </r>
       <r>  -28.5732    1.0000 </r>
       <r>  -28.5720    1.0000 </r>
       <r>  -28.2047    1.0000 </r>
       <r>  -28.2032    1.0000 </r>
       <r>  -28.1827    1.0000 </r>
       <r>  -28.1825    1.0000 </r>
       <r>  -12.0829    1.0000 </r>
       <r>  -12.0365    1.0000 </r>
       <r>  -11.7641    1.0000 </r>
       <r>  -11.7157    1.0000 </r>
       <r>    0.0232    1.0000 </r>
       <r>    0.1565    1.0000 </r>
       <r>    0.3263    1.0000 </r>
       <r>    0.4307    1.0000 </r>
       <r>    1.2913    1.0000 </r>
       <r>    1.3860    1.0000 </r>
       <r>    2.1285    1.0000 </r>
       <r>    2.1530    1.0000 </r>
       <r>    3.5485    1.0000 </r>
       <r>    3.5756    1.0000 </r>
       <r>    4.1683    1.0000 </r>
       <r>    4.2028    1.0000 </r>
       <r>    7.3423    0.0000 </r>
       <r>    7.4988    0.0000 </r>
       <r>    8.0699    0.0000 </r>
       <r>    8.1100    0.0000 </r>
       <r>    8.1180    0.0000 </r>
       <r>    8.2367    0.0000 </r>
       <r>   10.4844    0.0000 </r>
       <r>   10.8366    0.0000 </r>
       <r>   10.8913    0.0000 </r>
       <r>   11.2479    0.0000 </r>
       <r>   16.5971    0.0000 </r>
       <r>   16.6859    0.0000 </r>
       <r>   18.8292    0.0000 </r>
       <r>   19.1812    0.0000 </r>
       <r>   19.7396    0.0000 </r>
       <r>   20.0583    0.0000 </r>
       <r>   22.1647    0.0000 </r>
       <r>   22.1931    0.0000 </r>
       <r>   23.7604    0.0000 </r>
       <r>   23.9216    0.0000 </r>
       <r>   24.4532    0.0000 </r>
       <r>   24.6786    0.0000 </r>
       <r>   28.3281    0.0000 </r>
       <r>   28.6986    0.0000 </r>
      </set>
     </set>
    </set>
   </array>
  </eigenvalues>
  <separator name="orbital magnetization" >
   <v name="MAGDIPOLOUT">      0.00000000      0.00000000      0.00000000</v>
  </separator>
  <dos>
   <i name="efermi">      5.06103972 </i>
   <total>
    <array>
     <dimension dim="1">gridpoints</dimension>
     <dimension dim="2">spin</dimension>
     <field>energy</field>
     <field>total</field>
     <field>integrated</field>
     <set>
      <set comment="spin 1">
       <r>   -56.0885     0.0000     0.0000 </r>
       <r>   -55.7906     0.0000     0.0000 </r>
       <r>   -55.4927     0.0000     0.0000 </r>
       <r>   -55.1947     0.0000     0.0000 </r>
       <r>   -54.8968     0.0000     0.0000 </r>
       <r>   -54.5989     0.0000     0.0000 </r>
       <r>   -54.3010     0.0000     0.0000 </r>
       <r>   -54.0030     0.0000     0.0000 </r>
       <r>   -53.7051     0.0000     0.0000 </r>
       <r>   -53.4072     0.0000     0.0000 </r>
       <r>   -53.1092     0.0000     0.0000 </r>
       <r>   -52.8113     0.0000     0.0000 </r>
       <r>   -52.5134     0.0000     0.0000 </r>
       <r>   -52.2155     0.0000     0.0000 </r>
       <r>   -51.9175     7.0446     4.0000 </r>
       <r>   -51.6196     0.0000     4.0000 </r>
       <r>   -51.3217     0.0000     4.0000 </r>
       <r>   -51.0238     0.0000     4.0000 </r>
       <r>   -50.7258     0.0000     4.0000 </r>
       <r>   -50.4279     0.0000     4.0000 </r>
       <r>   -50.1300     0.0000     4.0000 </r>
       <r>   -49.8320     0.0000     4.0000 </r>
       <r>   -49.5341     0.0000     4.0000 </r>
       <r>   -49.2362     0.0000     4.0000 </r>
       <r>   -48.9383     0.0000     4.0000 </r>
       <r>   -48.6403     0.0000     4.0000 </r>
       <r>   -48.3424     0.0000     4.0000 </r>
       <r>   -48.0445     0.0000     4.0000 </r>
       <r>   -47.7466     0.0000     4.0000 </r>
       <r>   -47.4486     0.0000     4.0000 </r>
       <r>   -47.1507     0.0000     4.0000 </r>
       <r>   -46.8528     0.0000     4.0000 </r>
       <r>   -46.5548     0.0000     4.0000 </r>
       <r>   -46.2569     0.0000     4.0000 </r>
       <r>   -45.9590     0.0000     4.0000 </r>
       <r>   -45.6611     0.0000     4.0000 </r>
       <r>   -45.3631     0.0000     4.0000 </r>
       <r>   -45.0652     0.0000     4.0000 </r>
       <r>   -44.7673     0.0000     4.0000 </r>
       <r>   -44.4694     0.0000     4.0000 </r>
       <r>   -44.1714     0.0000     4.0000 </r>
       <r>   -43.8735     0.0000     4.0000 </r>
       <r>   -43.5756     0.0000     4.0000 </r>
       <r>   -43.2776     0.0000     4.0000 </r>
       <r>   -42.9797     0.0000     4.0000 </r>
       <r>   -42.6818     0.0000     4.0000 </r>
       <r>   -42.3839     0.0000     4.0000 </r>
       <r>   -42.0859     0.0000     4.0000 </r>
       <r>   -41.7880     0.0000     4.0000 </r>
       <r>   -41.4901     0.0000     4.0000 </r>
       <r>   -41.1922     0.0000     4.0000 </r>
       <r>   -40.8942     0.0000     4.0000 </r>
       <r>   -40.5963     0.0000     4.0000 </r>
       <r>   -40.2984     0.0000     4.0000 </r>
       <r>   -40.0004     0.0000     4.0000 </r>
       <r>   -39.7025     0.0000     4.0000 </r>
       <r>   -39.4046     0.0000     4.0000 </r>
       <r>   -39.1067     0.0000     4.0000 </r>
       <r>   -38.8087     0.0000     4.0000 </r>
       <r>   -38.5108     0.0000     4.0000 </r>
       <r>   -38.2129     0.0000     4.0000 </r>
       <r>   -37.9150     0.0000     4.0000 </r>
       <r>   -37.6170     0.0000     4.0000 </r>
       <r>   -37.3191     0.0000     4.0000 </r>
       <r>   -37.0212     0.0000     4.0000 </r>
       <r>   -36.7232     0.0000     4.0000 </r>
       <r>   -36.4253     0.0000     4.0000 </r>
       <r>   -36.1274     0.0000     4.0000 </r>
       <r>   -35.8295     0.0000     4.0000 </r>
       <r>   -35.5315     0.0000     4.0000 </r>
       <r>   -35.2336     0.0000     4.0000 </r>
       <r>   -34.9357     0.0000     4.0000 </r>
       <r>   -34.6378     0.0000     4.0000 </r>
       <r>   -34.3398     0.0000     4.0000 </r>
       <r>   -34.0419     0.0000     4.0000 </r>
       <r>   -33.7440     0.0000     4.0000 </r>
       <r>   -33.4460     0.0000     4.0000 </r>
       <r>   -33.1481     0.0000     4.0000 </r>
       <r>   -32.8502     0.0000     4.0000 </r>
       <r>   -32.5523     0.0000     4.0000 </r>
       <r>   -32.2543     0.0000     4.0000 </r>
       <r>   -31.9564     0.0000     4.0000 </r>
       <r>   -31.6585     0.0000     4.0000 </r>
       <r>   -31.3606     0.0000     4.0000 </r>
       <r>   -31.0626     0.0000     4.0000 </r>
       <r>   -30.7647     0.0000     4.0000 </r>
       <r>   -30.4668     0.0000     4.0000 </r>
       <r>   -30.1688     0.0000     4.0000 </r>
       <r>   -29.8709     0.0000     4.0000 </r>
       <r>   -29.5730     0.0000     4.0000 </r>
       <r>   -29.2751     0.0000     4.0000 </r>
       <r>   -28.9771     0.0000     4.0000 </r>
       <r>   -28.6792     0.0000     4.0000 </r>
       <r>   -28.3813     1.9119     5.9982 </r>
       <r>   -28.0834     2.8768    15.9999 </r>
       <r>   -27.7854     0.0000    16.0000 </r>
       <r>   -27.4875     0.0000    16.0000 </r>
       <r>   -27.1896     0.0000    16.0000 </r>
       <r>   -26.8917     0.0000    16.0000 </r>
       <r>   -26.5937     0.0000    16.0000 </r>
       <r>   -26.2958     0.0000    16.0000 </r>
       <r>   -25.9979     0.0000    16.0000 </r>
       <r>   -25.6999     0.0000    16.0000 </r>
       <r>   -25.4020     0.0000    16.0000 </r>
       <r>   -25.1041     0.0000    16.0000 </r>
       <r>   -24.8062     0.0000    16.0000 </r>
       <r>   -24.5082     0.0000    16.0000 </r>
       <r>   -24.2103     0.0000    16.0000 </r>
       <r>   -23.9124     0.0000    16.0000 </r>
       <r>   -23.6145     0.0000    16.0000 </r>
       <r>   -23.3165     0.0000    16.0000 </r>
       <r>   -23.0186     0.0000    16.0000 </r>
       <r>   -22.7207     0.0000    16.0000 </r>
       <r>   -22.4227     0.0000    16.0000 </r>
       <r>   -22.1248     0.0000    16.0000 </r>
       <r>   -21.8269     0.0000    16.0000 </r>
       <r>   -21.5290     0.0000    16.0000 </r>
       <r>   -21.2310     0.0000    16.0000 </r>
       <r>   -20.9331     0.0000    16.0000 </r>
       <r>   -20.6352     0.0000    16.0000 </r>
       <r>   -20.3373     0.0000    16.0000 </r>
       <r>   -20.0393     0.0000    16.0000 </r>
       <r>   -19.7414     0.0000    16.0000 </r>
       <r>   -19.4435     0.0000    16.0000 </r>
       <r>   -19.1455     0.0000    16.0000 </r>
       <r>   -18.8476     0.0000    16.0000 </r>
       <r>   -18.5497     0.0000    16.0000 </r>
       <r>   -18.2518     0.0000    16.0000 </r>
       <r>   -17.9538     0.0000    16.0000 </r>
       <r>   -17.6559     0.0000    16.0000 </r>
       <r>   -17.3580     0.0000    16.0000 </r>
       <r>   -17.0601     0.0000    16.0000 </r>
       <r>   -16.7621     0.0000    16.0000 </r>
       <r>   -16.4642     0.0000    16.0000 </r>
       <r>   -16.1663     0.0000    16.0000 </r>
       <r>   -15.8683     0.0000    16.0000 </r>
       <r>   -15.5704     0.0000    16.0000 </r>
       <r>   -15.2725     0.0000    16.0000 </r>
       <r>   -14.9746     0.0000    16.0000 </r>
       <r>   -14.6766     0.0000    16.0000 </r>
       <r>   -14.3787     0.0000    16.0000 </r>
       <r>   -14.0808     0.0000    16.0000 </r>
       <r>   -13.7829     0.0000    16.0000 </r>
       <r>   -13.4849     0.0000    16.0000 </r>
       <r>   -13.1870     0.1148    16.0465 </r>
       <r>   -12.8891     0.3947    16.2816 </r>
       <r>   -12.5911     0.3955    16.7369 </r>
       <r>   -12.2932     0.8845    17.6127 </r>
       <r>   -11.9953     1.5550    19.6485 </r>
       <r>   -11.6974     3.8745    22.1455 </r>
       <r>   -11.3994     0.1776    24.0000 </r>
       <r>   -11.1015     0.0000    24.0000 </r>
       <r>   -10.8036     0.0000    24.0000 </r>
       <r>   -10.5057     0.0000    24.0000 </r>
       <r>   -10.2077     0.0000    24.0000 </r>
       <r>    -9.9098     0.0000    24.0000 </r>
       <r>    -9.6119     0.0000    24.0000 </r>
       <r>    -9.3139     0.0000    24.0000 </r>
       <r>    -9.0160     0.0000    24.0000 </r>
       <r>    -8.7181     0.0000    24.0000 </r>
       <r>    -8.4202     0.0000    24.0000 </r>
       <r>    -8.1222     0.0000    24.0000 </r>
       <r>    -7.8243     0.0000    24.0000 </r>
       <r>    -7.5264     0.0000    24.0000 </r>
       <r>    -7.2285     0.0000    24.0000 </r>
       <r>    -6.9305     0.0000    24.0000 </r>
       <r>    -6.6326     0.0000    24.0000 </r>
       <r>    -6.3347     0.0000    24.0000 </r>
       <r>    -6.0367     0.0000    24.0000 </r>
       <r>    -5.7388     0.0000    24.0000 </r>
       <r>    -5.4409     0.0000    24.0000 </r>
       <r>    -5.1430     0.0000    24.0000 </r>
       <r>    -4.8450     0.0000    24.0000 </r>
       <r>    -4.5471     0.0000    24.0000 </r>
       <r>    -4.2492     0.0000    24.0000 </r>
       <r>    -3.9513     0.0000    24.0000 </r>
       <r>    -3.6533     0.0000    24.0000 </r>
       <r>    -3.3554     0.0000    24.0000 </r>
       <r>    -3.0575     0.0000    24.0000 </r>
       <r>    -2.7595     0.0000    24.0000 </r>
       <r>    -2.4616     0.0000    24.0000 </r>
       <r>    -2.1637     0.0000    24.0000 </r>
       <r>    -1.8658     0.0000    24.0000 </r>
       <r>    -1.5678     0.0000    24.0000 </r>
       <r>    -1.2699     0.0000    24.0000 </r>
       <r>    -0.9720     0.0000    24.0000 </r>
       <r>    -0.6741     0.1489    24.0638 </r>
       <r>    -0.3761     0.8314    24.5757 </r>
       <r>    -0.0782     1.2763    25.3679 </r>
       <r>     0.2197     1.4805    26.9367 </r>
       <r>     0.5177     1.9248    29.1396 </r>
       <r>     0.8156     1.9425    31.0814 </r>
       <r>     1.1135     1.2909    32.4216 </r>
       <r>     1.4114     0.9467    33.4866 </r>
       <r>     1.7094     0.6141    34.6045 </r>
       <r>     2.0073     0.9339    35.7262 </r>
       <r>     2.3052     1.6772    37.3798 </r>
       <r>     2.6031     1.2271    39.0270 </r>
       <r>     2.9011     0.9956    40.5100 </r>
       <r>     3.1990     1.5816    42.3336 </r>
       <r>     3.4969     1.4869    43.9950 </r>
       <r>     3.7948     1.5862    45.3861 </r>
       <r>     4.0928     1.3969    46.8783 </r>
       <r>     4.3907     0.2605    47.6384 </r>
       <r>     4.6886     0.2256    47.9244 </r>
       <r>     4.9866     0.0000    48.0000 </r>
       <r>     5.2845     0.0000    48.0000 </r>
       <r>     5.5824     0.0000    48.0000 </r>
       <r>     5.8803     0.0000    48.0000 </r>
       <r>     6.1783     0.0000    48.0000 </r>
       <r>     6.4762     0.0000    48.0000 </r>
       <r>     6.7741     0.0227    48.0068 </r>
       <r>     7.0720     0.8636    48.8693 </r>
       <r>     7.3700     1.3688    50.2402 </r>
       <r>     7.6679     2.0188    52.4727 </r>
       <r>     7.9658     2.5207    54.5623 </r>
       <r>     8.2638     0.7304    56.8543 </r>
       <r>     8.5617     1.1732    58.1326 </r>
       <r>     8.8596     0.8935    59.5660 </r>
       <r>     9.1575     0.1505    59.8773 </r>
       <r>     9.4555     0.0434    60.0129 </r>
       <r>     9.7534     0.2361    60.1356 </r>
       <r>    10.0513     0.5319    61.0738 </r>
       <r>    10.3492     0.5884    62.0571 </r>
       <r>    10.6472     0.8631    62.8868 </r>
       <r>    10.9451     1.3499    63.8819 </r>
       <r>    11.2430     1.8484    65.3567 </r>
       <r>    11.5410     0.6737    66.4282 </r>
       <r>    11.8389     0.9962    67.3321 </r>
       <r>    12.1368     0.1865    67.8986 </r>
       <r>    12.4347     0.0710    67.9877 </r>
       <r>    12.7327     0.0000    68.0000 </r>
       <r>    13.0306     0.0355    68.0123 </r>
       <r>    13.3285     0.0474    68.0476 </r>
       <r>    13.6264     0.1421    68.1005 </r>
       <r>    13.9244     0.0000    68.1429 </r>
       <r>    14.2223     0.1190    68.2524 </r>
       <r>    14.5202     0.0450    68.3150 </r>
       <r>    14.8182     0.0237    68.4497 </r>
       <r>    15.1161     0.1150    68.6004 </r>
       <r>    15.4140     0.0947    68.7707 </r>
       <r>    15.7119     0.2243    68.9575 </r>
       <r>    16.0099     0.4737    69.2752 </r>
       <r>    16.3078     0.5054    69.6373 </r>
       <r>    16.6057     0.5021    70.0526 </r>
       <r>    16.9036     0.5273    70.7938 </r>
       <r>    17.2016     0.4222    71.2916 </r>
       <r>    17.4995     0.4573    71.6936 </r>
       <r>    17.7974     0.1421    72.0511 </r>
       <r>    18.0954     0.5119    72.3800 </r>
       <r>    18.3933     0.1903    72.7392 </r>
       <r>    18.6912     0.7109    73.1695 </r>
       <r>    18.9891     0.5906    73.7298 </r>
       <r>    19.2871     0.6818    74.2860 </r>
       <r>    19.5850     0.5276    74.7956 </r>
       <r>    19.8829     0.7010    75.6374 </r>
       <r>    20.1808     1.3400    76.5615 </r>
       <r>    20.4788     0.7304    77.9037 </r>
       <r>    20.7767     0.8555    78.6799 </r>
       <r>    21.0746     0.5738    79.3120 </r>
       <r>    21.3726     0.3308    79.8640 </r>
       <r>    21.6705     0.2894    80.2450 </r>
       <r>    21.9684     0.5211    80.6173 </r>
       <r>    22.2663     0.9693    81.3188 </r>
       <r>    22.5643     0.5597    82.2126 </r>
       <r>    22.8622     0.9488    83.1187 </r>
       <r>    23.1601     0.9994    84.5905 </r>
       <r>    23.4580     0.4183    85.2798 </r>
       <r>    23.7560     0.2477    86.0297 </r>
       <r>    24.0539     0.8654    86.8698 </r>
       <r>    24.3518     0.5215    87.4869 </r>
       <r>    24.6498     0.6731    88.1935 </r>
       <r>    24.9477     0.6865    88.8642 </r>
       <r>    25.2456     0.5564    89.4286 </r>
       <r>    25.5435     0.2388    89.8877 </r>
       <r>    25.8415     0.5449    90.3175 </r>
       <r>    26.1394     0.5409    90.6867 </r>
       <r>    26.4373     0.3087    91.0532 </r>
       <r>    26.7352     0.6020    91.5850 </r>
       <r>    27.0332     0.4577    92.1628 </r>
       <r>    27.3311     0.4330    92.6422 </r>
       <r>    27.6290     0.5785    93.1829 </r>
       <r>    27.9270     0.5840    94.0064 </r>
       <r>    28.2249     0.5670    94.5428 </r>
       <r>    28.5228     0.5676    95.0439 </r>
       <r>    28.8207     0.4001    95.6077 </r>
       <r>    29.1187     0.2422    95.9240 </r>
       <r>    29.4166     0.0000    96.0000 </r>
       <r>    29.7145     0.0000    96.0000 </r>
       <r>    30.0124     0.0000    96.0000 </r>
       <r>    30.3104     0.0000    96.0000 </r>
       <r>    30.6083     0.0000    96.0000 </r>
       <r>    30.9062     0.0000    96.0000 </r>
       <r>    31.2041     0.0000    96.0000 </r>
       <r>    31.5021     0.0000    96.0000 </r>
       <r>    31.8000     0.0000    96.0000 </r>
       <r>    32.0979     0.0000    96.0000 </r>
       <r>    32.3959     0.0000    96.0000 </r>
       <r>    32.6938     0.0000    96.0000 </r>
       <r>    32.9917     0.0000    96.0000 </r>
       <r>    33.2896     0.0000    96.0000 </r>
      </set>
     </set>
    </array>
   </total>
  </dos>
 </calculation>
 <structure name="finalpos" >
  <crystal>
   <varray name="basis" >
    <v>       4.59096672       0.00000000       0.00000000 </v>
    <v>       0.00000000       4.59096672       0.00000000 </v>
    <v>       0.00000000       0.00000000       2.95206776 </v>
   </varray>
   <i name="volume">     62.22065961 </i>
   <varray name="rec_basis" >
    <v>       0.21781905      -0.00000000       0.00000000 </v>
    <v>       0.00000000       0.21781905       0.00000000 </v>
    <v>      -0.00000000      -0.00000000       0.33874561 </v>
   </varray>
  </crystal>
  <varray name="positions" >
   <v>       0.69606687       0.69606687       0.50000000 </v>
   <v>       0.19606687       0.80393313       0.00000000 </v>
   <v>       0.80393313       0.19606687       0.00000000 </v>
   <v>       0.30393313       0.30393313       0.50000000 </v>
   <v>       0.50000000       0.50000000       0.00000000 </v>
   <v>       0.00000000       0.00000000       0.50000000 </v>
  </varray>
 </structure>
</modeling>
